                  Welcome to Q-Chem
     A Quantum Leap Into The Future Of Chemistry


 Q-Chem 6.1 (devel), Q-Chem, Inc., Pleasanton, CA (2022)

 E. Epifanovsky,  A. T. B. Gilbert,  Xintian Feng,  Joonho Lee,  Yuezhi Mao,  
 N. Mardirossian,  P. Pokhilko,  A. White,  M. Wormit,  M. P. Coons,  
 A. L. Dempwolff,  Zhengting Gan,  D. Hait,  P. R. Horn,  L. D. Jacobson,  
 I. Kaliman,  J. Kussmann,  A. W. Lange,  Ka Un Lao,  D. S. Levine,  Jie Liu,  
 S. C. McKenzie,  A. F. Morrison,  K. Nanda,  F. Plasser,  D. R. Rehn,  
 M. L. Vidal,  Zhi-Qiang You,  Ying Zhu,  B. Alam,  B. Albrecht,  
 A. Aldossary,  E. Alguire,  J. H. Andersen,  V. Athavale,  D. Barton,  
 K. Begam,  A. Behn,  N. Bellonzi,  Y. A. Bernard,  E. J. Berquist,  
 H. Burton,  A. Carreras,  K. Carter-Fenk,  Mathew Chow,  Romit Chakraborty,  
 Chandrima Chakravarty,  Junhan Chen,  A. D. Chien,  K. D. Closser,  
 V. Cofer-Shabica,  L. Cunha,  S. Dasgupta,  Jia Deng,  M. de Wergifosse,  
 M. Diedenhofen,  Hainam Do,  S. Ehlert,  Po-Tung Fang,  S. Fatehi,  
 Qingguo Feng,  T. Friedhoff,  Thomas Froitzheim,  B. Ganoe,  J. Gayvert,  
 Qinghui Ge,  G. Gidofalvi,  M. Goldey,  Montgomery Gray,  J. Gomes,  
 C. Gonzalez-Espinoza,  S. Gulania,  A. Gunina,  J. A. Gyamfi,  
 M. W. D. Hanson-Heine,  P. H. P. Harbach,  A. W. Hauser,  M. F. Herbst,  
 M. Hernandez Vera,  M. Hodecker,  Z. C. Holden,  S. Houck,  Xunkun Huang,  
 Kerwin Hui,  B. C. Huynh,  K. Ikeda,  M. Ivanov,  Hyunjun Ji,  Zuxin Jin,  
 Hanjie Jiang,  Subrata Jana,  B. Kaduk,  S. Kaehler,  R. Kang,  
 K. Khistyaev,  Jaehoon Kim,  Yongbin Kim,  P. Klunzinger,  Z. Koczor-Benda,  
 Joong Hoon Koh,  D. Kosenkov,  Saikiran Kotaru,  L. Koulias,  T. Kowalczyk,  
 C. M. Krauter,  K. Kue,  A. Kunitsa,  T. Kus,  A. Landau,  K. V. Lawler,  
 D. Lefrancois,  S. Lehtola,  Rain Li,  Shaozhi Li,  Yi-Pei Li,  
 Jiashu Liang,  M. Liebenthal,  Hung-Hsuan Lin,  You-Sheng Lin,  Fenglai Liu,  
 Kuan-Yu Liu,  M. Loipersberger,  A. Luenser,  C. Malbon,  A. Manjanath,  
 P. Manohar,  E. Mansoor,  S. F. Manzer,  Shan-Ping Mao,  A. V. Marenich,  
 T. Markovich,  S. Mason,  F. Matz,  S. A. Maurer,  P. F. McLaughlin,  
 M. F. S. J. Menger,  J.-M. Mewes,  S. A. Mewes,  P. Morgante,  
 Mohammad Mostafanejad,  J. W. Mullinax,  K. J. Oosterbaan,  G. Paran,  
 V. Parravicini,  Alexander C. Paul,  Suranjan K. Paul,  F. Pavosevic,  
 Zheng Pei,  S. Prager,  E. I. Proynov,  E. Ramos,  B. Rana,  A. E. Rask,  
 A. Rettig,  R. M. Richard,  F. Rob,  E. Rossomme,  T. Scheele,  M. Scheurer,  
 M. Schneider,  P. E. Schneider,  N. Sergueev,  S. M. Sharada,  
 Hengyuan Shen,  W. Skomorowski,  D. W. Small,  C. J. Stein,  Yingli Su,  
 Yu-Chuan Su,  E. J. Sundstrom,  Zhen Tao,  J. Thirman,  Hung-Yi Tsai,  
 T. Tsuchimochi,  N. M. Tubman,  C. Utku,  S. P. Veccham,  O. Vydrov,  
 J. Wenzel,  Jonathan Wong,  J. Witte,  A. Yamada,  Chou-Hsun Yang,  Kun Yao,  
 S. Yeganeh,  S. R. Yost,  A. Zech,  F. Zeller,  Igor Ying Zhang,  
 Xing Zhang,  Yu Zhang,  D. Zuev,  A. Aspuru-Guzik,  A. T. Bell,  
 N. A. Besley,  K. B. Bravaya,  B. R. Brooks,  D. Casanova,  Jeng-Da Chai,  
 Hsing-Ta Chen,  S. Coriani,  C. J. Cramer,  A. E. DePrince, III,  
 R. A. DiStasio Jr.,  A. Dreuw,  B. D. Dunietz,  T. R. Furlani,  
 W. A. Goddard III,  S. Grimme,  S. Hammes-Schiffer,  T. Head-Gordon,  
 W. J. Hehre,  Chao-Ping Hsu,  T.-C. Jagau,  Yousung Jung,  A. Klamt,  
 Jing Kong,  D. S. Lambrecht,  Xiangyuan Li,  WanZhen Liang,  N. J. Mayhall,  
 C. W. McCurdy,  J. B. Neaton,  T. Neudecker,  C. Ochsenfeld,  
 J. A. Parkhill,  R. Peverati,  V. A. Rassolov,  Haisheng Ren,  Yihan Shao,  
 L. V. Slipchenko,  R. P. Steele,  J. E. Subotnik,  A. J. W. Thom,  
 A. Tkatchenko,  D. G. Truhlar,  T. Van Voorhis,  Fan Wang,  
 T. A. Wesolowski,  K. B. Whaley,  H. L. Woodcock III,  P. M. Zimmerman,  
 S. Faraji,  P. M. W. Gill,  M. Head-Gordon,  J. M. Herbert,  A. I. Krylov

 Contributors to earlier versions of Q-Chem not listed above: 
 R. D. Adamson,  B. Austin,  R. Baer,  J. Baker,  G. J. O. Beran,  
 K. Brandhorst,  S. T. Brown,  E. F. C. Byrd,  Arup K. Chakraborty,  
 G. K. L. Chan,  Chun-Min Chang,  Yunqing Chen,  C.-L. Cheng,  
 Siu Hung Chien,  D. M. Chipman,  D. L. Crittenden,  H. Dachsel,  
 R. J. Doerksen,  A. D. Dutoi,  R. G. Edgar,  J. Fosso-Tande,  
 L. Fusti-Molnar,  D. Ghosh,  A. Ghysels,  A. Golubeva-Zadorozhnaya,  
 J. Gonthier,  M. S. Gordon,  S. R. Gwaltney,  G. Hawkins,  J. E. Herr,  
 A. Heyden,  S. Hirata,  E. G. Hohenstein,  G. Kedziora,  F. J. Keil,  
 C. Kelley,  Jihan Kim,  R. A. King,  R. Z. Khaliullin,  P. P. Korambath,  
 W. Kurlancheek,  A. Laurent,  A. M. Lee,  M. S. Lee,  S. V. Levchenko,  
 Ching Yeh Lin,  D. Liotard,  E. Livshits,  R. C. Lochan,  I. Lotan,  
 L. A. Martinez-Martinez,  P. E. Maslen,  N. Nair,  D. P. O'Neill,  
 D. Neuhauser,  E. Neuscamman,  C. M. Oana,  R. Olivares-Amaya,  R. Olson,  
 T. M. Perrine,  B. Peters,  P. A. Pieniazek,  A. Prociuk,  Y. M. Rhee,  
 J. Ritchie,  M. A. Rohrdanz,  E. Rosta,  N. J. Russ,  H. F. Schaefer III,  
 M. W. Schmidt,  N. E. Schultz,  S. Sharma,  N. Shenvi,  C. D. Sherrill,  
 A. C. Simmonett,  A. Sodt,  T. Stein,  D. Stuck,  K. S. Thanthiriwatte,  
 V. Vanovschi,  L. Vogt,  Tao Wang,  A. Warshel,  M. A. Watson,  
 C. F. Williams,  Q. Wu,  X. Xu,  Jun Yang,  W. Zhang,  Yan Zhao

   Please cite Q-Chem as follows:
  "Software for the frontiers of quantum chemistry:
   An overview of developments in the Q-Chem 5 package"
   J. Chem. Phys. 155, 084801 (2021)
   https://doi.org/10.1063/5.0055522 (open access)

 Q-Chem 6.1.0 for Intel X86 EM64T Linux

 Parts of Q-Chem use Armadillo 9.900.5 (Nocturnal Misbehaviour).
 http://arma.sourceforge.net/

 Q-Chem begins on Wed Feb 12 03:05:24 2025  

 Host: n072.cluster
0

     Scratch files written to /scratch/sanghita/qchem197645//
 Processing $rem in /home/chance/software/ccats2023/config/preferences:
 Processing $rem in /home/sanghita/.qchemrc:

 Checking the input file for inconsistencies... 	...done.

--------------------------------------------------------------
User input:
--------------------------------------------------------------
$molecule
0 1
--
0 1
N   14.0720775   14.4772325   13.2163359
O    9.7109512   18.5476720   16.9529985
O   12.6699426   19.5523330   12.3564035
N   14.1978809   12.5091885   15.1593425
H   13.6499394   13.1366178   14.9463288
N   10.6968001   15.7849540   16.5189328
O   17.7504349   10.6360029   13.6758024
N   12.1814359   15.9435682   14.6317116
H   12.5053443   15.1481361   14.6714205
N   13.1221249   11.7865154   17.1941461
N   12.1227943   13.8442504   16.4446593
O   16.4108133   12.1313491   10.2097075
O   15.1190570   10.0272714   18.5288177
O   11.1290189   10.3657151   18.8545277
O    8.2990082   15.1419389   18.2749697
O   13.5562040   16.9047300    9.6341685
N   13.1459147   16.6060343   12.5358173
N   15.4965237   12.5285272   13.1505830
C   11.0143706   14.5319951   16.8417490
C   14.1170956   11.7921351   16.3321237
C   15.9650751   11.1214508   15.1360316
C   11.0953689   17.8358760   15.1810458
C   14.8723675   13.5645586   12.5930497
C   12.4922182   16.8341150   13.6409164
C   11.8319416   18.0811204   14.0187143
C   10.2214631   13.7490278   17.7741864
C   15.2977586   10.9475056   16.3546309
C   13.7878495   15.4471905   12.3009395
C   11.3070969   16.4441565   15.5508055
C   12.1288558   12.6755315   17.1472027
C   15.7878894   10.0968648   17.3722738
C   11.8793668   19.3617450   13.4496060
C   10.9226761   12.5554385   17.9638892
C   17.1459011   10.4155106   14.8643386
C    8.9442376   19.5584112   17.6118137
H    9.4508233   20.3839259   17.6632585
H    8.1255381   19.7310394   17.1214803
C   10.3528342   18.8531819   15.7951684
C   15.2363235   12.1179618   14.3756128
C   14.3593810   15.1246861   11.0045300
C   15.0539669   13.9171689   11.1762271
C   10.4278783   11.5483961   18.7950447
C   11.1261322   20.3329703   14.0524750
H   11.1215417   21.1866756   13.6859306
C   16.9661325    9.4174721   17.0587819
H   17.3312499    8.8448704   17.6938039
C   15.7139749   13.3261514   10.1105154
C   17.5980982    9.5544504   15.8707280
H   18.3676159    9.0557279   15.7163935
C   10.3763483   20.0885228   15.1826535
H    9.8702941   20.7785556   15.5427672
C   14.3384859   15.7631269    9.7584399
C    8.6321772   19.0697299   18.9670633
H    8.2624313   18.1755258   18.8979343
H    9.4568811   19.0078014   19.4734733
C    9.0115299   13.9744433   18.4301079
C   18.9503624    9.9285128   13.3515393
H   19.5718897    9.9701792   14.0942739
H   18.7477221    8.9961052   13.1746977
C    8.5615626   12.9870674   19.2757322
H    7.7659346   13.1239969   19.7387356
C   10.7456831    9.4004821   19.7917881
H   10.9055579    9.7274130   20.6904649
H    9.7994720    9.2055198   19.7001520
C   15.7161443    9.4532460   19.6551378
H   15.8120791    8.4994678   19.5104492
H   16.6046296    9.8276419   19.7676734
C    9.2425547   11.8006900   19.4622197
H    8.8995913   11.1624303   20.0457969
C   15.7371172   13.9977373    8.9128156
H   16.2209588   13.6411817    8.2022340
C   15.0565071   15.1953969    8.7359741
H   15.0882829   15.6210433    7.9096416
C   11.5619574    8.1528774   19.5377793
H   12.5043098    8.3841001   19.5056263
H   11.3162087    7.7750646   18.6776862
C   13.1587044   20.8344929   12.0573805
H   12.4076280   21.4172194   11.8660700
H   13.6124249   21.1860035   12.8386987
C   14.0485738   20.8689550   10.9657856
H   13.6168669   20.3965673   10.2359122
H   14.8240276   20.3434580   11.2165791
C    7.6674238   19.9281068   19.7290897
H    6.8486296   20.0094367   19.2146415
H    8.0457399   20.8148554   19.8223335
C   14.9650728    9.6661315   20.8608758
H   14.0426834    9.4279437   20.6759960
H   14.9800813   10.6185596   21.0489710
C    6.5831864   16.3007567   17.1086190
H    7.0632746   17.1373790   17.0218059
H    6.1201459   16.1594752   16.2678177
C   15.6267041   10.9876648   10.4400838
H   14.7328058   11.1713958   10.1105154
H   15.5578977   10.8648484   11.3998513
C   12.2346021   18.4933919    8.5301948
H   12.3991602   19.0594225    9.3002595
H   11.4025321   18.0184458    8.6893522
C   11.3324346    7.1381324   20.6132976
H   10.3858331    6.9355137   20.6534889
H   11.5874296    7.5230023   21.4653525
C   13.3497586   17.4870061    8.4273051
H   14.1617389   17.9288152    8.1331050
H   13.1190623   16.8089684    7.7713836
C   15.3510178    8.9895681   22.0601833
H   15.2307208    8.0388870   21.9122794
H   16.2998699    9.1391348   22.1904030
C   20.7262645   10.0357673   11.6361760
H   21.3901812   10.0388088   12.3435423
H   20.5674991    9.1104399   11.3950284
C   15.4689195    8.5757414   10.1908980
H   14.6112143    8.5534716    9.7391481
H   15.2768533    8.5751951   11.1426272
C   12.0829851    5.8709485   20.4187719
H   11.8791032    5.2653169   21.1357841
H   11.8295242    5.4733359   19.5827935
H   13.0251303    6.0559573   20.4139489
C   12.0693240   19.3428850    7.3485715
H   11.8390644   18.7693987    6.6026215
H   12.9319963   19.7392755    7.1492228
C   19.5528736   10.5502129   12.1522319
H   19.7093214   11.4844120   12.3564035
H   18.8886234   10.5224830   11.4448655
C   14.6614194    9.3375091   23.3286197
H   15.0088477    8.7948156   24.0408090
H   14.8113782   10.2638327   23.5295761
H   13.7189659    9.1785619   23.2337683
C    7.5527856   15.2880186   17.2066857
H    8.1550812   15.4029118   16.4559129
H    7.0928610   14.4446305   17.0684278
C   16.0262801    9.8303456    9.9079514
H   15.9623692    9.9403089    8.9465763
H   16.9727204    9.7545513   10.1105154
C   11.1206074   20.3871893    7.3935857
H   11.1446390   20.8764371    6.5688609
H   10.2432576   20.0172803    7.5205901
H   11.3280117   20.9770242    8.1218515
C   21.3083710   10.7266657   10.4561603
H   22.1006944   10.2640489   10.1732138
H   20.6691154   10.7306814    9.7407558
H   21.5324041   11.6307558   10.6908773
C    7.3328736   19.3970613   21.0891623
H    6.7146047   19.9920334   21.5216203
H    6.9345570   18.5284529   21.0055644
H    8.1344700   19.3338715   21.6132564
C   14.5263882   22.0774159   10.4416915
H   13.7586074   22.5934452   10.1523143
H   14.9380491   22.5671254   11.1699573
C   15.5040661   22.0465294    9.3082977
H   15.7196571   22.9447873    9.0478583
H   16.3037028   21.5946549    9.5880289
H   15.1165550   21.5805353    8.5639554
C    5.5565906   16.5132914   18.1182237
H    5.0851084   15.6754736   18.2532664
H    5.9936888   16.7367130   18.9542021
C    4.5198059   17.6033945   17.8095548
H    3.9077376   17.6809213   18.5442511
H    4.9675882   18.4417210   17.6761198
H    4.0372176   17.3707472   17.0137677
C   16.0664960    7.3789297    9.9240279
H   15.4648420    6.6645972   10.1458837
H   16.2879840    7.3334613    8.9915905
H   16.8669951    7.2979093   10.4481221
--
0 1
N   33.9432397  -12.9544121   13.2163359
O   29.5821135   -8.8839727   16.9529985
O   32.5411049   -7.8793117   12.3564035
N   34.0690432  -14.9224561   15.1593425
H   33.5211017  -14.2950268   14.9463288
N   30.5679624  -11.6466907   16.5189328
O   37.6215972  -16.7956418   13.6758024
N   32.0525981  -11.4880765   14.6317116
H   32.3765066  -12.2835085   14.6714205
N   32.9932871  -15.6451293   17.1941461
N   31.9939565  -13.5873943   16.4446593
O   36.2819756  -15.3002956   10.2097075
O   34.9902192  -17.4043733   18.5288177
O   31.0001811  -17.0659295   18.8545277
O   28.1701705  -12.2897058   18.2749697
O   33.4273663  -10.5269146    9.6341685
N   33.0170769  -10.8256104   12.5358173
N   35.3676860  -14.9031175   13.1505830
C   30.8855329  -12.8996496   16.8417490
C   33.9882579  -15.6395096   16.3321237
C   35.8362374  -16.3101939   15.1360316
C   30.9665312   -9.5957687   15.1810458
C   34.7435297  -13.8670861   12.5930497
C   32.3633805  -10.5975297   13.6409164
C   31.7031039   -9.3505242   14.0187143
C   30.0926254  -13.6826169   17.7741864
C   35.1689209  -16.4841391   16.3546309
C   33.6590118  -11.9844542   12.3009395
C   31.1782592  -10.9874882   15.5508055
C   32.0000180  -14.7561132   17.1472027
C   35.6590516  -17.3347799   17.3722738
C   31.7505291   -8.0698997   13.4496060
C   30.7938384  -14.8762062   17.9638892
C   37.0170634  -17.0161340   14.8643386
C   28.8153999   -7.8732335   17.6118137
H   29.3219856   -7.0477188   17.6632585
H   27.9967003   -7.7006053   17.1214803
C   30.2239965   -8.5784628   15.7951684
C   35.1074858  -15.3136829   14.3756128
C   34.2305432  -12.3069586   11.0045300
C   34.9251291  -13.5144758   11.1762271
C   30.2990406  -15.8832486   18.7950447
C   30.9972945   -7.0986743   14.0524750
H   30.9927039   -6.2449691   13.6859306
C   36.8372948  -18.0141726   17.0587819
H   37.2024122  -18.5867742   17.6938039
C   35.5851372  -14.1054932   10.1105154
C   37.4692605  -17.8771943   15.8707280
H   38.2387782  -18.3759168   15.7163935
C   30.2475106   -7.3431219   15.1826535
H   29.7414564   -6.6530891   15.5427672
C   34.2096482  -11.6685177    9.7584399
C   28.5033395   -8.3619148   18.9670633
H   28.1335935   -9.2561189   18.8979343
H   29.3280434   -8.4238433   19.4734733
C   28.8826922  -13.4572013   18.4301079
C   38.8215247  -17.5031319   13.3515393
H   39.4430520  -17.4614655   14.0942739
H   38.6188844  -18.4355394   13.1746977
C   28.4327249  -14.4445773   19.2757322
H   27.6370969  -14.3076477   19.7387356
C   30.6168454  -18.0311625   19.7917881
H   30.7767202  -17.7042317   20.6904649
H   29.6706342  -18.2261248   19.7001520
C   35.5873066  -17.9783987   19.6551378
H   35.6832414  -18.9321769   19.5104492
H   36.4757919  -17.6040028   19.7676734
C   29.1137170  -15.6309547   19.4622197
H   28.7707536  -16.2692144   20.0457969
C   35.6082795  -13.4339074    8.9128156
H   36.0921211  -13.7904630    8.2022340
C   34.9276694  -12.2362477    8.7359741
H   34.9594452  -11.8106014    7.9096416
C   31.4331197  -19.2787673   19.5377793
H   32.3754721  -19.0475446   19.5056263
H   31.1873709  -19.6565801   18.6776862
C   33.0298667   -6.5971518   12.0573805
H   32.2787903   -6.0144253   11.8660700
H   33.4835871   -6.2456412   12.8386987
C   33.9197361   -6.5626897   10.9657856
H   33.4880292   -7.0350773   10.2359122
H   34.6951899   -7.0881867   11.2165791
C   27.5385861   -7.5035378   19.7290897
H   26.7197918   -7.4222080   19.2146415
H   27.9169021   -6.6167893   19.8223335
C   34.8362350  -17.7655132   20.8608758
H   33.9138457  -18.0037010   20.6759960
H   34.8512435  -16.8130851   21.0489710
C   26.4543487  -11.1308880   17.1086190
H   26.9344369  -10.2942657   17.0218059
H   25.9913082  -11.2721695   16.2678177
C   35.4978664  -16.4439799   10.4400838
H   34.6039681  -16.2602489   10.1105154
H   35.4290600  -16.5667963   11.3998513
C   32.1057644   -8.9382528    8.5301948
H   32.2703225   -8.3722221    9.3002595
H   31.2736943   -9.4131989    8.6893522
C   31.2035969  -20.2935122   20.6132976
H   30.2569954  -20.4961310   20.6534889
H   31.4585919  -19.9086424   21.4653525
C   33.2209208   -9.9446385    8.4273051
H   34.0329012   -9.5028294    8.1331050
H   32.9902246  -10.6226762    7.7713836
C   35.2221801  -18.4420766   22.0601833
H   35.1018830  -19.3927577   21.9122794
H   36.1710322  -18.2925099   22.1904030
C   40.5974268  -17.3958773   11.6361760
H   41.2613435  -17.3928359   12.3435423
H   40.4386614  -18.3212047   11.3950284
C   35.3400818  -18.8559032   10.1908980
H   34.4823766  -18.8781731    9.7391481
H   35.1480156  -18.8564496   11.1426272
C   31.9541474  -21.5606962   20.4187719
H   31.7502654  -22.1663277   21.1357841
H   31.7006865  -21.9583088   19.5827935
H   32.8962926  -21.3756874   20.4139489
C   31.9404863   -8.0887597    7.3485715
H   31.7102267   -8.6622460    6.6026215
H   32.8031585   -7.6923692    7.1492228
C   39.4240359  -16.8814317   12.1522319
H   39.5804837  -15.9472327   12.3564035
H   38.7597856  -16.9091616   11.4448655
C   34.5325817  -18.0941356   23.3286197
H   34.8800100  -18.6368291   24.0408090
H   34.6825405  -17.1678120   23.5295761
H   33.5901282  -18.2530827   23.2337683
C   27.4239479  -12.1436261   17.2066857
H   28.0262434  -12.0287328   16.4559129
H   26.9640233  -12.9870142   17.0684278
C   35.8974424  -17.6012991    9.9079514
H   35.8335315  -17.4913357    8.9465763
H   36.8438827  -17.6770934   10.1105154
C   30.9917697   -7.0444554    7.3935857
H   31.0158013   -6.5552075    6.5688609
H   30.1144199   -7.4143644    7.5205901
H   31.1991739   -6.4546205    8.1218515
C   41.1795333  -16.7049790   10.4561603
H   41.9718566  -17.1675958   10.1732138
H   40.5402776  -16.7009633    9.7407558
H   41.4035664  -15.8008889   10.6908773
C   27.2040359   -8.0345834   21.0891623
H   26.5857670   -7.4396113   21.5216203
H   26.8057192   -8.9031918   21.0055644
H   28.0056322   -8.0977732   21.6132564
C   34.3975505   -5.3542288   10.4416915
H   33.6297697   -4.8381994   10.1523143
H   34.8092114   -4.8645193   11.1699573
C   35.3752284   -5.3851153    9.3082977
H   35.5908194   -4.4868574    9.0478583
H   36.1748651   -5.8369898    9.5880289
H   34.9877173   -5.8511093    8.5639554
C   25.4277529  -10.9183533   18.1182237
H   24.9562707  -11.7561710   18.2532664
H   25.8648511  -10.6949317   18.9542021
C   24.3909682   -9.8282502   17.8095548
H   23.7788999   -9.7507234   18.5442511
H   24.8387505   -8.9899237   17.6761198
H   23.9083799  -10.0608975   17.0137677
C   35.9376583  -20.0527150    9.9240279
H   35.3360043  -20.7670475   10.1458837
H   36.1591463  -20.0981834    8.9915905
H   36.7381574  -20.1337353   10.4481221
$end
$rem
jobtype sp
method PBE 
basis 6-31G**
scf_guess fragmo
sym_ignore true
scf_print_frgm true
sts_dc trans
sts_trans_donor 1-6 
sts_trans_acceptor 1-6 
cis_n_roots 12
cis_singlets 1
cis_triplets 0
sts_dc_bsse 0
rpa 2
$end
--------------------------------------------------------------
 ----------------------------------------------------------------
             Standard Nuclear Orientation (Angstroms)
    I     Atom           X                Y                Z
 ----------------------------------------------------------------
    1      N      14.0720775000    14.4772325000    13.2163359000
    2      O       9.7109512000    18.5476720000    16.9529985000
    3      O      12.6699426000    19.5523330000    12.3564035000
    4      N      14.1978809000    12.5091885000    15.1593425000
    5      H      13.6499394000    13.1366178000    14.9463288000
    6      N      10.6968001000    15.7849540000    16.5189328000
    7      O      17.7504349000    10.6360029000    13.6758024000
    8      N      12.1814359000    15.9435682000    14.6317116000
    9      H      12.5053443000    15.1481361000    14.6714205000
   10      N      13.1221249000    11.7865154000    17.1941461000
   11      N      12.1227943000    13.8442504000    16.4446593000
   12      O      16.4108133000    12.1313491000    10.2097075000
   13      O      15.1190570000    10.0272714000    18.5288177000
   14      O      11.1290189000    10.3657151000    18.8545277000
   15      O       8.2990082000    15.1419389000    18.2749697000
   16      O      13.5562040000    16.9047300000     9.6341685000
   17      N      13.1459147000    16.6060343000    12.5358173000
   18      N      15.4965237000    12.5285272000    13.1505830000
   19      C      11.0143706000    14.5319951000    16.8417490000
   20      C      14.1170956000    11.7921351000    16.3321237000
   21      C      15.9650751000    11.1214508000    15.1360316000
   22      C      11.0953689000    17.8358760000    15.1810458000
   23      C      14.8723675000    13.5645586000    12.5930497000
   24      C      12.4922182000    16.8341150000    13.6409164000
   25      C      11.8319416000    18.0811204000    14.0187143000
   26      C      10.2214631000    13.7490278000    17.7741864000
   27      C      15.2977586000    10.9475056000    16.3546309000
   28      C      13.7878495000    15.4471905000    12.3009395000
   29      C      11.3070969000    16.4441565000    15.5508055000
   30      C      12.1288558000    12.6755315000    17.1472027000
   31      C      15.7878894000    10.0968648000    17.3722738000
   32      C      11.8793668000    19.3617450000    13.4496060000
   33      C      10.9226761000    12.5554385000    17.9638892000
   34      C      17.1459011000    10.4155106000    14.8643386000
   35      C       8.9442376000    19.5584112000    17.6118137000
   36      H       9.4508233000    20.3839259000    17.6632585000
   37      H       8.1255381000    19.7310394000    17.1214803000
   38      C      10.3528342000    18.8531819000    15.7951684000
   39      C      15.2363235000    12.1179618000    14.3756128000
   40      C      14.3593810000    15.1246861000    11.0045300000
   41      C      15.0539669000    13.9171689000    11.1762271000
   42      C      10.4278783000    11.5483961000    18.7950447000
   43      C      11.1261322000    20.3329703000    14.0524750000
   44      H      11.1215417000    21.1866756000    13.6859306000
   45      C      16.9661325000     9.4174721000    17.0587819000
   46      H      17.3312499000     8.8448704000    17.6938039000
   47      C      15.7139749000    13.3261514000    10.1105154000
   48      C      17.5980982000     9.5544504000    15.8707280000
   49      H      18.3676159000     9.0557279000    15.7163935000
   50      C      10.3763483000    20.0885228000    15.1826535000
   51      H       9.8702941000    20.7785556000    15.5427672000
   52      C      14.3384859000    15.7631269000     9.7584399000
   53      C       8.6321772000    19.0697299000    18.9670633000
   54      H       8.2624313000    18.1755258000    18.8979343000
   55      H       9.4568811000    19.0078014000    19.4734733000
   56      C       9.0115299000    13.9744433000    18.4301079000
   57      C      18.9503624000     9.9285128000    13.3515393000
   58      H      19.5718897000     9.9701792000    14.0942739000
   59      H      18.7477221000     8.9961052000    13.1746977000
   60      C       8.5615626000    12.9870674000    19.2757322000
   61      H       7.7659346000    13.1239969000    19.7387356000
   62      C      10.7456831000     9.4004821000    19.7917881000
   63      H      10.9055579000     9.7274130000    20.6904649000
   64      H       9.7994720000     9.2055198000    19.7001520000
   65      C      15.7161443000     9.4532460000    19.6551378000
   66      H      15.8120791000     8.4994678000    19.5104492000
   67      H      16.6046296000     9.8276419000    19.7676734000
   68      C       9.2425547000    11.8006900000    19.4622197000
   69      H       8.8995913000    11.1624303000    20.0457969000
   70      C      15.7371172000    13.9977373000     8.9128156000
   71      H      16.2209588000    13.6411817000     8.2022340000
   72      C      15.0565071000    15.1953969000     8.7359741000
   73      H      15.0882829000    15.6210433000     7.9096416000
   74      C      11.5619574000     8.1528774000    19.5377793000
   75      H      12.5043098000     8.3841001000    19.5056263000
   76      H      11.3162087000     7.7750646000    18.6776862000
   77      C      13.1587044000    20.8344929000    12.0573805000
   78      H      12.4076280000    21.4172194000    11.8660700000
   79      H      13.6124249000    21.1860035000    12.8386987000
   80      C      14.0485738000    20.8689550000    10.9657856000
   81      H      13.6168669000    20.3965673000    10.2359122000
   82      H      14.8240276000    20.3434580000    11.2165791000
   83      C       7.6674238000    19.9281068000    19.7290897000
   84      H       6.8486296000    20.0094367000    19.2146415000
   85      H       8.0457399000    20.8148554000    19.8223335000
   86      C      14.9650728000     9.6661315000    20.8608758000
   87      H      14.0426834000     9.4279437000    20.6759960000
   88      H      14.9800813000    10.6185596000    21.0489710000
   89      C       6.5831864000    16.3007567000    17.1086190000
   90      H       7.0632746000    17.1373790000    17.0218059000
   91      H       6.1201459000    16.1594752000    16.2678177000
   92      C      15.6267041000    10.9876648000    10.4400838000
   93      H      14.7328058000    11.1713958000    10.1105154000
   94      H      15.5578977000    10.8648484000    11.3998513000
   95      C      12.2346021000    18.4933919000     8.5301948000
   96      H      12.3991602000    19.0594225000     9.3002595000
   97      H      11.4025321000    18.0184458000     8.6893522000
   98      C      11.3324346000     7.1381324000    20.6132976000
   99      H      10.3858331000     6.9355137000    20.6534889000
  100      H      11.5874296000     7.5230023000    21.4653525000
  101      C      13.3497586000    17.4870061000     8.4273051000
  102      H      14.1617389000    17.9288152000     8.1331050000
  103      H      13.1190623000    16.8089684000     7.7713836000
  104      C      15.3510178000     8.9895681000    22.0601833000
  105      H      15.2307208000     8.0388870000    21.9122794000
  106      H      16.2998699000     9.1391348000    22.1904030000
  107      C      20.7262645000    10.0357673000    11.6361760000
  108      H      21.3901812000    10.0388088000    12.3435423000
  109      H      20.5674991000     9.1104399000    11.3950284000
  110      C      15.4689195000     8.5757414000    10.1908980000
  111      H      14.6112143000     8.5534716000     9.7391481000
  112      H      15.2768533000     8.5751951000    11.1426272000
  113      C      12.0829851000     5.8709485000    20.4187719000
  114      H      11.8791032000     5.2653169000    21.1357841000
  115      H      11.8295242000     5.4733359000    19.5827935000
  116      H      13.0251303000     6.0559573000    20.4139489000
  117      C      12.0693240000    19.3428850000     7.3485715000
  118      H      11.8390644000    18.7693987000     6.6026215000
  119      H      12.9319963000    19.7392755000     7.1492228000
  120      C      19.5528736000    10.5502129000    12.1522319000
  121      H      19.7093214000    11.4844120000    12.3564035000
  122      H      18.8886234000    10.5224830000    11.4448655000
  123      C      14.6614194000     9.3375091000    23.3286197000
  124      H      15.0088477000     8.7948156000    24.0408090000
  125      H      14.8113782000    10.2638327000    23.5295761000
  126      H      13.7189659000     9.1785619000    23.2337683000
  127      C       7.5527856000    15.2880186000    17.2066857000
  128      H       8.1550812000    15.4029118000    16.4559129000
  129      H       7.0928610000    14.4446305000    17.0684278000
  130      C      16.0262801000     9.8303456000     9.9079514000
  131      H      15.9623692000     9.9403089000     8.9465763000
  132      H      16.9727204000     9.7545513000    10.1105154000
  133      C      11.1206074000    20.3871893000     7.3935857000
  134      H      11.1446390000    20.8764371000     6.5688609000
  135      H      10.2432576000    20.0172803000     7.5205901000
  136      H      11.3280117000    20.9770242000     8.1218515000
  137      C      21.3083710000    10.7266657000    10.4561603000
  138      H      22.1006944000    10.2640489000    10.1732138000
  139      H      20.6691154000    10.7306814000     9.7407558000
  140      H      21.5324041000    11.6307558000    10.6908773000
  141      C       7.3328736000    19.3970613000    21.0891623000
  142      H       6.7146047000    19.9920334000    21.5216203000
  143      H       6.9345570000    18.5284529000    21.0055644000
  144      H       8.1344700000    19.3338715000    21.6132564000
  145      C      14.5263882000    22.0774159000    10.4416915000
  146      H      13.7586074000    22.5934452000    10.1523143000
  147      H      14.9380491000    22.5671254000    11.1699573000
  148      C      15.5040661000    22.0465294000     9.3082977000
  149      H      15.7196571000    22.9447873000     9.0478583000
  150      H      16.3037028000    21.5946549000     9.5880289000
  151      H      15.1165550000    21.5805353000     8.5639554000
  152      C       5.5565906000    16.5132914000    18.1182237000
  153      H       5.0851084000    15.6754736000    18.2532664000
  154      H       5.9936888000    16.7367130000    18.9542021000
  155      C       4.5198059000    17.6033945000    17.8095548000
  156      H       3.9077376000    17.6809213000    18.5442511000
  157      H       4.9675882000    18.4417210000    17.6761198000
  158      H       4.0372176000    17.3707472000    17.0137677000
  159      C      16.0664960000     7.3789297000     9.9240279000
  160      H      15.4648420000     6.6645972000    10.1458837000
  161      H      16.2879840000     7.3334613000     8.9915905000
  162      H      16.8669951000     7.2979093000    10.4481221000
  163      N      33.9432397000   -12.9544121000    13.2163359000
  164      O      29.5821135000    -8.8839727000    16.9529985000
  165      O      32.5411049000    -7.8793117000    12.3564035000
  166      N      34.0690432000   -14.9224561000    15.1593425000
  167      H      33.5211017000   -14.2950268000    14.9463288000
  168      N      30.5679624000   -11.6466907000    16.5189328000
  169      O      37.6215972000   -16.7956418000    13.6758024000
  170      N      32.0525981000   -11.4880765000    14.6317116000
  171      H      32.3765066000   -12.2835085000    14.6714205000
  172      N      32.9932871000   -15.6451293000    17.1941461000
  173      N      31.9939565000   -13.5873943000    16.4446593000
  174      O      36.2819756000   -15.3002956000    10.2097075000
  175      O      34.9902192000   -17.4043733000    18.5288177000
  176      O      31.0001811000   -17.0659295000    18.8545277000
  177      O      28.1701705000   -12.2897058000    18.2749697000
  178      O      33.4273663000   -10.5269146000     9.6341685000
  179      N      33.0170769000   -10.8256104000    12.5358173000
  180      N      35.3676860000   -14.9031175000    13.1505830000
  181      C      30.8855329000   -12.8996496000    16.8417490000
  182      C      33.9882579000   -15.6395096000    16.3321237000
  183      C      35.8362374000   -16.3101939000    15.1360316000
  184      C      30.9665312000    -9.5957687000    15.1810458000
  185      C      34.7435297000   -13.8670861000    12.5930497000
  186      C      32.3633805000   -10.5975297000    13.6409164000
  187      C      31.7031039000    -9.3505242000    14.0187143000
  188      C      30.0926254000   -13.6826169000    17.7741864000
  189      C      35.1689209000   -16.4841391000    16.3546309000
  190      C      33.6590118000   -11.9844542000    12.3009395000
  191      C      31.1782592000   -10.9874882000    15.5508055000
  192      C      32.0000180000   -14.7561132000    17.1472027000
  193      C      35.6590516000   -17.3347799000    17.3722738000
  194      C      31.7505291000    -8.0698997000    13.4496060000
  195      C      30.7938384000   -14.8762062000    17.9638892000
  196      C      37.0170634000   -17.0161340000    14.8643386000
  197      C      28.8153999000    -7.8732335000    17.6118137000
  198      H      29.3219856000    -7.0477188000    17.6632585000
  199      H      27.9967003000    -7.7006053000    17.1214803000
  200      C      30.2239965000    -8.5784628000    15.7951684000
  201      C      35.1074858000   -15.3136829000    14.3756128000
  202      C      34.2305432000   -12.3069586000    11.0045300000
  203      C      34.9251291000   -13.5144758000    11.1762271000
  204      C      30.2990406000   -15.8832486000    18.7950447000
  205      C      30.9972945000    -7.0986743000    14.0524750000
  206      H      30.9927039000    -6.2449691000    13.6859306000
  207      C      36.8372948000   -18.0141726000    17.0587819000
  208      H      37.2024122000   -18.5867742000    17.6938039000
  209      C      35.5851372000   -14.1054932000    10.1105154000
  210      C      37.4692605000   -17.8771943000    15.8707280000
  211      H      38.2387782000   -18.3759168000    15.7163935000
  212      C      30.2475106000    -7.3431219000    15.1826535000
  213      H      29.7414564000    -6.6530891000    15.5427672000
  214      C      34.2096482000   -11.6685177000     9.7584399000
  215      C      28.5033395000    -8.3619148000    18.9670633000
  216      H      28.1335935000    -9.2561189000    18.8979343000
  217      H      29.3280434000    -8.4238433000    19.4734733000
  218      C      28.8826922000   -13.4572013000    18.4301079000
  219      C      38.8215247000   -17.5031319000    13.3515393000
  220      H      39.4430520000   -17.4614655000    14.0942739000
  221      H      38.6188844000   -18.4355394000    13.1746977000
  222      C      28.4327249000   -14.4445773000    19.2757322000
  223      H      27.6370969000   -14.3076477000    19.7387356000
  224      C      30.6168454000   -18.0311625000    19.7917881000
  225      H      30.7767202000   -17.7042317000    20.6904649000
  226      H      29.6706342000   -18.2261248000    19.7001520000
  227      C      35.5873066000   -17.9783987000    19.6551378000
  228      H      35.6832414000   -18.9321769000    19.5104492000
  229      H      36.4757919000   -17.6040028000    19.7676734000
  230      C      29.1137170000   -15.6309547000    19.4622197000
  231      H      28.7707536000   -16.2692144000    20.0457969000
  232      C      35.6082795000   -13.4339074000     8.9128156000
  233      H      36.0921211000   -13.7904630000     8.2022340000
  234      C      34.9276694000   -12.2362477000     8.7359741000
  235      H      34.9594452000   -11.8106014000     7.9096416000
  236      C      31.4331197000   -19.2787673000    19.5377793000
  237      H      32.3754721000   -19.0475446000    19.5056263000
  238      H      31.1873709000   -19.6565801000    18.6776862000
  239      C      33.0298667000    -6.5971518000    12.0573805000
  240      H      32.2787903000    -6.0144253000    11.8660700000
  241      H      33.4835871000    -6.2456412000    12.8386987000
  242      C      33.9197361000    -6.5626897000    10.9657856000
  243      H      33.4880292000    -7.0350773000    10.2359122000
  244      H      34.6951899000    -7.0881867000    11.2165791000
  245      C      27.5385861000    -7.5035378000    19.7290897000
  246      H      26.7197918000    -7.4222080000    19.2146415000
  247      H      27.9169021000    -6.6167893000    19.8223335000
  248      C      34.8362350000   -17.7655132000    20.8608758000
  249      H      33.9138457000   -18.0037010000    20.6759960000
  250      H      34.8512435000   -16.8130851000    21.0489710000
  251      C      26.4543487000   -11.1308880000    17.1086190000
  252      H      26.9344369000   -10.2942657000    17.0218059000
  253      H      25.9913082000   -11.2721695000    16.2678177000
  254      C      35.4978664000   -16.4439799000    10.4400838000
  255      H      34.6039681000   -16.2602489000    10.1105154000
  256      H      35.4290600000   -16.5667963000    11.3998513000
  257      C      32.1057644000    -8.9382528000     8.5301948000
  258      H      32.2703225000    -8.3722221000     9.3002595000
  259      H      31.2736943000    -9.4131989000     8.6893522000
  260      C      31.2035969000   -20.2935122000    20.6132976000
  261      H      30.2569954000   -20.4961310000    20.6534889000
  262      H      31.4585919000   -19.9086424000    21.4653525000
  263      C      33.2209208000    -9.9446385000     8.4273051000
  264      H      34.0329012000    -9.5028294000     8.1331050000
  265      H      32.9902246000   -10.6226762000     7.7713836000
  266      C      35.2221801000   -18.4420766000    22.0601833000
  267      H      35.1018830000   -19.3927577000    21.9122794000
  268      H      36.1710322000   -18.2925099000    22.1904030000
  269      C      40.5974268000   -17.3958773000    11.6361760000
  270      H      41.2613435000   -17.3928359000    12.3435423000
  271      H      40.4386614000   -18.3212047000    11.3950284000
  272      C      35.3400818000   -18.8559032000    10.1908980000
  273      H      34.4823766000   -18.8781731000     9.7391481000
  274      H      35.1480156000   -18.8564496000    11.1426272000
  275      C      31.9541474000   -21.5606962000    20.4187719000
  276      H      31.7502654000   -22.1663277000    21.1357841000
  277      H      31.7006865000   -21.9583088000    19.5827935000
  278      H      32.8962926000   -21.3756874000    20.4139489000
  279      C      31.9404863000    -8.0887597000     7.3485715000
  280      H      31.7102267000    -8.6622460000     6.6026215000
  281      H      32.8031585000    -7.6923692000     7.1492228000
  282      C      39.4240359000   -16.8814317000    12.1522319000
  283      H      39.5804837000   -15.9472327000    12.3564035000
  284      H      38.7597856000   -16.9091616000    11.4448655000
  285      C      34.5325817000   -18.0941356000    23.3286197000
  286      H      34.8800100000   -18.6368291000    24.0408090000
  287      H      34.6825405000   -17.1678120000    23.5295761000
  288      H      33.5901282000   -18.2530827000    23.2337683000
  289      C      27.4239479000   -12.1436261000    17.2066857000
  290      H      28.0262434000   -12.0287328000    16.4559129000
  291      H      26.9640233000   -12.9870142000    17.0684278000
  292      C      35.8974424000   -17.6012991000     9.9079514000
  293      H      35.8335315000   -17.4913357000     8.9465763000
  294      H      36.8438827000   -17.6770934000    10.1105154000
  295      C      30.9917697000    -7.0444554000     7.3935857000
  296      H      31.0158013000    -6.5552075000     6.5688609000
  297      H      30.1144199000    -7.4143644000     7.5205901000
  298      H      31.1991739000    -6.4546205000     8.1218515000
  299      C      41.1795333000   -16.7049790000    10.4561603000
  300      H      41.9718566000   -17.1675958000    10.1732138000
  301      H      40.5402776000   -16.7009633000     9.7407558000
  302      H      41.4035664000   -15.8008889000    10.6908773000
  303      C      27.2040359000    -8.0345834000    21.0891623000
  304      H      26.5857670000    -7.4396113000    21.5216203000
  305      H      26.8057192000    -8.9031918000    21.0055644000
  306      H      28.0056322000    -8.0977732000    21.6132564000
  307      C      34.3975505000    -5.3542288000    10.4416915000
  308      H      33.6297697000    -4.8381994000    10.1523143000
  309      H      34.8092114000    -4.8645193000    11.1699573000
  310      C      35.3752284000    -5.3851153000     9.3082977000
  311      H      35.5908194000    -4.4868574000     9.0478583000
  312      H      36.1748651000    -5.8369898000     9.5880289000
  313      H      34.9877173000    -5.8511093000     8.5639554000
  314      C      25.4277529000   -10.9183533000    18.1182237000
  315      H      24.9562707000   -11.7561710000    18.2532664000
  316      H      25.8648511000   -10.6949317000    18.9542021000
  317      C      24.3909682000    -9.8282502000    17.8095548000
  318      H      23.7788999000    -9.7507234000    18.5442511000
  319      H      24.8387505000    -8.9899237000    17.6761198000
  320      H      23.9083799000   -10.0608975000    17.0137677000
  321      C      35.9376583000   -20.0527150000     9.9240279000
  322      H      35.3360043000   -20.7670475000    10.1458837000
  323      H      36.1591463000   -20.0981834000     8.9915905000
  324      H      36.7381574000   -20.1337353000    10.4481221000
 ----------------------------------------------------------------
 Nuclear Repulsion Energy =       33431.89130293 hartrees
 There are      586 alpha and      586 beta electrons
 Requested basis set is 6-31G(d,p)
 There are 1132 shells and 3220 basis functions

 Total QAlloc Memory Limit   2000 MB
 Mega-Array Size       188 MB
 MEM_STATIC part       192 MB

 A cutoff of  1.0D-12 yielded  70332 shell pairs
 There are    620080 function pairs
 Smallest overlap matrix eigenvalue = 1.72E-04

 Scale SEOQF with 1.000000e-03/1.000000e-03/1.000000e-03

 Standard Electronic Orientation quadrupole field applied
 Nucleus-field energy     =     0.0000001413 hartrees
 Can only be proccessed by the old fragmo guess code
 Guess MOs from converged MOs on fragments

QCSCRATCH   is /scratch/sanghita
QCFILEPREF  is /scratch/sanghita/qchem197645/

-----------------------------------------------------------------
 SCF on fragment 1 out of 2 in state 1
-----------------------------------------------------------------

/home/chance/software/ccats2023/exe/qcprog.exe /scratch/sanghita/qchem197645/Frg1s1.input /scratch/sanghita/qchem197645/Frg1s1/
                  Welcome to Q-Chem
     A Quantum Leap Into The Future Of Chemistry


 Q-Chem 6.1 (devel), Q-Chem, Inc., Pleasanton, CA (2022)

 E. Epifanovsky,  A. T. B. Gilbert,  Xintian Feng,  Joonho Lee,  Yuezhi Mao,  
 N. Mardirossian,  P. Pokhilko,  A. White,  M. Wormit,  M. P. Coons,  
 A. L. Dempwolff,  Zhengting Gan,  D. Hait,  P. R. Horn,  L. D. Jacobson,  
 I. Kaliman,  J. Kussmann,  A. W. Lange,  Ka Un Lao,  D. S. Levine,  Jie Liu,  
 S. C. McKenzie,  A. F. Morrison,  K. Nanda,  F. Plasser,  D. R. Rehn,  
 M. L. Vidal,  Zhi-Qiang You,  Ying Zhu,  B. Alam,  B. Albrecht,  
 A. Aldossary,  E. Alguire,  J. H. Andersen,  V. Athavale,  D. Barton,  
 K. Begam,  A. Behn,  N. Bellonzi,  Y. A. Bernard,  E. J. Berquist,  
 H. Burton,  A. Carreras,  K. Carter-Fenk,  Mathew Chow,  Romit Chakraborty,  
 Chandrima Chakravarty,  Junhan Chen,  A. D. Chien,  K. D. Closser,  
 V. Cofer-Shabica,  L. Cunha,  S. Dasgupta,  Jia Deng,  M. de Wergifosse,  
 M. Diedenhofen,  Hainam Do,  S. Ehlert,  Po-Tung Fang,  S. Fatehi,  
 Qingguo Feng,  T. Friedhoff,  Thomas Froitzheim,  B. Ganoe,  J. Gayvert,  
 Qinghui Ge,  G. Gidofalvi,  M. Goldey,  Montgomery Gray,  J. Gomes,  
 C. Gonzalez-Espinoza,  S. Gulania,  A. Gunina,  J. A. Gyamfi,  
 M. W. D. Hanson-Heine,  P. H. P. Harbach,  A. W. Hauser,  M. F. Herbst,  
 M. Hernandez Vera,  M. Hodecker,  Z. C. Holden,  S. Houck,  Xunkun Huang,  
 Kerwin Hui,  B. C. Huynh,  K. Ikeda,  M. Ivanov,  Hyunjun Ji,  Zuxin Jin,  
 Hanjie Jiang,  Subrata Jana,  B. Kaduk,  S. Kaehler,  R. Kang,  
 K. Khistyaev,  Jaehoon Kim,  Yongbin Kim,  P. Klunzinger,  Z. Koczor-Benda,  
 Joong Hoon Koh,  D. Kosenkov,  Saikiran Kotaru,  L. Koulias,  T. Kowalczyk,  
 C. M. Krauter,  K. Kue,  A. Kunitsa,  T. Kus,  A. Landau,  K. V. Lawler,  
 D. Lefrancois,  S. Lehtola,  Rain Li,  Shaozhi Li,  Yi-Pei Li,  
 Jiashu Liang,  M. Liebenthal,  Hung-Hsuan Lin,  You-Sheng Lin,  Fenglai Liu,  
 Kuan-Yu Liu,  M. Loipersberger,  A. Luenser,  C. Malbon,  A. Manjanath,  
 P. Manohar,  E. Mansoor,  S. F. Manzer,  Shan-Ping Mao,  A. V. Marenich,  
 T. Markovich,  S. Mason,  F. Matz,  S. A. Maurer,  P. F. McLaughlin,  
 M. F. S. J. Menger,  J.-M. Mewes,  S. A. Mewes,  P. Morgante,  
 Mohammad Mostafanejad,  J. W. Mullinax,  K. J. Oosterbaan,  G. Paran,  
 V. Parravicini,  Alexander C. Paul,  Suranjan K. Paul,  F. Pavosevic,  
 Zheng Pei,  S. Prager,  E. I. Proynov,  E. Ramos,  B. Rana,  A. E. Rask,  
 A. Rettig,  R. M. Richard,  F. Rob,  E. Rossomme,  T. Scheele,  M. Scheurer,  
 M. Schneider,  P. E. Schneider,  N. Sergueev,  S. M. Sharada,  
 Hengyuan Shen,  W. Skomorowski,  D. W. Small,  C. J. Stein,  Yingli Su,  
 Yu-Chuan Su,  E. J. Sundstrom,  Zhen Tao,  J. Thirman,  Hung-Yi Tsai,  
 T. Tsuchimochi,  N. M. Tubman,  C. Utku,  S. P. Veccham,  O. Vydrov,  
 J. Wenzel,  Jonathan Wong,  J. Witte,  A. Yamada,  Chou-Hsun Yang,  Kun Yao,  
 S. Yeganeh,  S. R. Yost,  A. Zech,  F. Zeller,  Igor Ying Zhang,  
 Xing Zhang,  Yu Zhang,  D. Zuev,  A. Aspuru-Guzik,  A. T. Bell,  
 N. A. Besley,  K. B. Bravaya,  B. R. Brooks,  D. Casanova,  Jeng-Da Chai,  
 Hsing-Ta Chen,  S. Coriani,  C. J. Cramer,  A. E. DePrince, III,  
 R. A. DiStasio Jr.,  A. Dreuw,  B. D. Dunietz,  T. R. Furlani,  
 W. A. Goddard III,  S. Grimme,  S. Hammes-Schiffer,  T. Head-Gordon,  
 W. J. Hehre,  Chao-Ping Hsu,  T.-C. Jagau,  Yousung Jung,  A. Klamt,  
 Jing Kong,  D. S. Lambrecht,  Xiangyuan Li,  WanZhen Liang,  N. J. Mayhall,  
 C. W. McCurdy,  J. B. Neaton,  T. Neudecker,  C. Ochsenfeld,  
 J. A. Parkhill,  R. Peverati,  V. A. Rassolov,  Haisheng Ren,  Yihan Shao,  
 L. V. Slipchenko,  R. P. Steele,  J. E. Subotnik,  A. J. W. Thom,  
 A. Tkatchenko,  D. G. Truhlar,  T. Van Voorhis,  Fan Wang,  
 T. A. Wesolowski,  K. B. Whaley,  H. L. Woodcock III,  P. M. Zimmerman,  
 S. Faraji,  P. M. W. Gill,  M. Head-Gordon,  J. M. Herbert,  A. I. Krylov

 Contributors to earlier versions of Q-Chem not listed above: 
 R. D. Adamson,  B. Austin,  R. Baer,  J. Baker,  G. J. O. Beran,  
 K. Brandhorst,  S. T. Brown,  E. F. C. Byrd,  Arup K. Chakraborty,  
 G. K. L. Chan,  Chun-Min Chang,  Yunqing Chen,  C.-L. Cheng,  
 Siu Hung Chien,  D. M. Chipman,  D. L. Crittenden,  H. Dachsel,  
 R. J. Doerksen,  A. D. Dutoi,  R. G. Edgar,  J. Fosso-Tande,  
 L. Fusti-Molnar,  D. Ghosh,  A. Ghysels,  A. Golubeva-Zadorozhnaya,  
 J. Gonthier,  M. S. Gordon,  S. R. Gwaltney,  G. Hawkins,  J. E. Herr,  
 A. Heyden,  S. Hirata,  E. G. Hohenstein,  G. Kedziora,  F. J. Keil,  
 C. Kelley,  Jihan Kim,  R. A. King,  R. Z. Khaliullin,  P. P. Korambath,  
 W. Kurlancheek,  A. Laurent,  A. M. Lee,  M. S. Lee,  S. V. Levchenko,  
 Ching Yeh Lin,  D. Liotard,  E. Livshits,  R. C. Lochan,  I. Lotan,  
 L. A. Martinez-Martinez,  P. E. Maslen,  N. Nair,  D. P. O'Neill,  
 D. Neuhauser,  E. Neuscamman,  C. M. Oana,  R. Olivares-Amaya,  R. Olson,  
 T. M. Perrine,  B. Peters,  P. A. Pieniazek,  A. Prociuk,  Y. M. Rhee,  
 J. Ritchie,  M. A. Rohrdanz,  E. Rosta,  N. J. Russ,  H. F. Schaefer III,  
 M. W. Schmidt,  N. E. Schultz,  S. Sharma,  N. Shenvi,  C. D. Sherrill,  
 A. C. Simmonett,  A. Sodt,  T. Stein,  D. Stuck,  K. S. Thanthiriwatte,  
 V. Vanovschi,  L. Vogt,  Tao Wang,  A. Warshel,  M. A. Watson,  
 C. F. Williams,  Q. Wu,  X. Xu,  Jun Yang,  W. Zhang,  Yan Zhao

   Please cite Q-Chem as follows:
  "Software for the frontiers of quantum chemistry:
   An overview of developments in the Q-Chem 5 package"
   J. Chem. Phys. 155, 084801 (2021)
   https://doi.org/10.1063/5.0055522 (open access)

 Q-Chem 6.1.0 for Intel X86 EM64T Linux

 Parts of Q-Chem use Armadillo 9.900.5 (Nocturnal Misbehaviour).
 http://arma.sourceforge.net/

 Q-Chem begins on Wed Feb 12 03:05:40 2025  

 Host: n072.cluster
0

     Scratch files written to /scratch/sanghita/qchem197645/Frg1s1//
 Processing $rem in /home/chance/software/ccats2023/config/preferences:
 Processing $rem in /home/sanghita/.qchemrc:

 Checking the input file for inconsistencies... 	...done.

--------------------------------------------------------------
User input:
--------------------------------------------------------------
$molecule
0 1
 7	14.0720775000	14.4772325000	13.2163359000
 8	9.7109512000	18.5476720000	16.9529985000
 8	12.6699426000	19.5523330000	12.3564035000
 7	14.1978809000	12.5091885000	15.1593425000
 1	13.6499394000	13.1366178000	14.9463288000
 7	10.6968001000	15.7849540000	16.5189328000
 8	17.7504349000	10.6360029000	13.6758024000
 7	12.1814359000	15.9435682000	14.6317116000
 1	12.5053443000	15.1481361000	14.6714205000
 7	13.1221249000	11.7865154000	17.1941461000
 7	12.1227943000	13.8442504000	16.4446593000
 8	16.4108133000	12.1313491000	10.2097075000
 8	15.1190570000	10.0272714000	18.5288177000
 8	11.1290189000	10.3657151000	18.8545277000
 8	8.2990082000	15.1419389000	18.2749697000
 8	13.5562040000	16.9047300000	9.6341685000
 7	13.1459147000	16.6060343000	12.5358173000
 7	15.4965237000	12.5285272000	13.1505830000
 6	11.0143706000	14.5319951000	16.8417490000
 6	14.1170956000	11.7921351000	16.3321237000
 6	15.9650751000	11.1214508000	15.1360316000
 6	11.0953689000	17.8358760000	15.1810458000
 6	14.8723675000	13.5645586000	12.5930497000
 6	12.4922182000	16.8341150000	13.6409164000
 6	11.8319416000	18.0811204000	14.0187143000
 6	10.2214631000	13.7490278000	17.7741864000
 6	15.2977586000	10.9475056000	16.3546309000
 6	13.7878495000	15.4471905000	12.3009395000
 6	11.3070969000	16.4441565000	15.5508055000
 6	12.1288558000	12.6755315000	17.1472027000
 6	15.7878894000	10.0968648000	17.3722738000
 6	11.8793668000	19.3617450000	13.4496060000
 6	10.9226761000	12.5554385000	17.9638892000
 6	17.1459011000	10.4155106000	14.8643386000
 6	8.9442376000	19.5584112000	17.6118137000
 1	9.4508233000	20.3839259000	17.6632585000
 1	8.1255381000	19.7310394000	17.1214803000
 6	10.3528342000	18.8531819000	15.7951684000
 6	15.2363235000	12.1179618000	14.3756128000
 6	14.3593810000	15.1246861000	11.0045300000
 6	15.0539669000	13.9171689000	11.1762271000
 6	10.4278783000	11.5483961000	18.7950447000
 6	11.1261322000	20.3329703000	14.0524750000
 1	11.1215417000	21.1866756000	13.6859306000
 6	16.9661325000	9.4174721000	17.0587819000
 1	17.3312499000	8.8448704000	17.6938039000
 6	15.7139749000	13.3261514000	10.1105154000
 6	17.5980982000	9.5544504000	15.8707280000
 1	18.3676159000	9.0557279000	15.7163935000
 6	10.3763483000	20.0885228000	15.1826535000
 1	9.8702941000	20.7785556000	15.5427672000
 6	14.3384859000	15.7631269000	9.7584399000
 6	8.6321772000	19.0697299000	18.9670633000
 1	8.2624313000	18.1755258000	18.8979343000
 1	9.4568811000	19.0078014000	19.4734733000
 6	9.0115299000	13.9744433000	18.4301079000
 6	18.9503624000	9.9285128000	13.3515393000
 1	19.5718897000	9.9701792000	14.0942739000
 1	18.7477221000	8.9961052000	13.1746977000
 6	8.5615626000	12.9870674000	19.2757322000
 1	7.7659346000	13.1239969000	19.7387356000
 6	10.7456831000	9.4004821000	19.7917881000
 1	10.9055579000	9.7274130000	20.6904649000
 1	9.7994720000	9.2055198000	19.7001520000
 6	15.7161443000	9.4532460000	19.6551378000
 1	15.8120791000	8.4994678000	19.5104492000
 1	16.6046296000	9.8276419000	19.7676734000
 6	9.2425547000	11.8006900000	19.4622197000
 1	8.8995913000	11.1624303000	20.0457969000
 6	15.7371172000	13.9977373000	8.9128156000
 1	16.2209588000	13.6411817000	8.2022340000
 6	15.0565071000	15.1953969000	8.7359741000
 1	15.0882829000	15.6210433000	7.9096416000
 6	11.5619574000	8.1528774000	19.5377793000
 1	12.5043098000	8.3841001000	19.5056263000
 1	11.3162087000	7.7750646000	18.6776862000
 6	13.1587044000	20.8344929000	12.0573805000
 1	12.4076280000	21.4172194000	11.8660700000
 1	13.6124249000	21.1860035000	12.8386987000
 6	14.0485738000	20.8689550000	10.9657856000
 1	13.6168669000	20.3965673000	10.2359122000
 1	14.8240276000	20.3434580000	11.2165791000
 6	7.6674238000	19.9281068000	19.7290897000
 1	6.8486296000	20.0094367000	19.2146415000
 1	8.0457399000	20.8148554000	19.8223335000
 6	14.9650728000	9.6661315000	20.8608758000
 1	14.0426834000	9.4279437000	20.6759960000
 1	14.9800813000	10.6185596000	21.0489710000
 6	6.5831864000	16.3007567000	17.1086190000
 1	7.0632746000	17.1373790000	17.0218059000
 1	6.1201459000	16.1594752000	16.2678177000
 6	15.6267041000	10.9876648000	10.4400838000
 1	14.7328058000	11.1713958000	10.1105154000
 1	15.5578977000	10.8648484000	11.3998513000
 6	12.2346021000	18.4933919000	8.5301948000
 1	12.3991602000	19.0594225000	9.3002595000
 1	11.4025321000	18.0184458000	8.6893522000
 6	11.3324346000	7.1381324000	20.6132976000
 1	10.3858331000	6.9355137000	20.6534889000
 1	11.5874296000	7.5230023000	21.4653525000
 6	13.3497586000	17.4870061000	8.4273051000
 1	14.1617389000	17.9288152000	8.1331050000
 1	13.1190623000	16.8089684000	7.7713836000
 6	15.3510178000	8.9895681000	22.0601833000
 1	15.2307208000	8.0388870000	21.9122794000
 1	16.2998699000	9.1391348000	22.1904030000
 6	20.7262645000	10.0357673000	11.6361760000
 1	21.3901812000	10.0388088000	12.3435423000
 1	20.5674991000	9.1104399000	11.3950284000
 6	15.4689195000	8.5757414000	10.1908980000
 1	14.6112143000	8.5534716000	9.7391481000
 1	15.2768533000	8.5751951000	11.1426272000
 6	12.0829851000	5.8709485000	20.4187719000
 1	11.8791032000	5.2653169000	21.1357841000
 1	11.8295242000	5.4733359000	19.5827935000
 1	13.0251303000	6.0559573000	20.4139489000
 6	12.0693240000	19.3428850000	7.3485715000
 1	11.8390644000	18.7693987000	6.6026215000
 1	12.9319963000	19.7392755000	7.1492228000
 6	19.5528736000	10.5502129000	12.1522319000
 1	19.7093214000	11.4844120000	12.3564035000
 1	18.8886234000	10.5224830000	11.4448655000
 6	14.6614194000	9.3375091000	23.3286197000
 1	15.0088477000	8.7948156000	24.0408090000
 1	14.8113782000	10.2638327000	23.5295761000
 1	13.7189659000	9.1785619000	23.2337683000
 6	7.5527856000	15.2880186000	17.2066857000
 1	8.1550812000	15.4029118000	16.4559129000
 1	7.0928610000	14.4446305000	17.0684278000
 6	16.0262801000	9.8303456000	9.9079514000
 1	15.9623692000	9.9403089000	8.9465763000
 1	16.9727204000	9.7545513000	10.1105154000
 6	11.1206074000	20.3871893000	7.3935857000
 1	11.1446390000	20.8764371000	6.5688609000
 1	10.2432576000	20.0172803000	7.5205901000
 1	11.3280117000	20.9770242000	8.1218515000
 6	21.3083710000	10.7266657000	10.4561603000
 1	22.1006944000	10.2640489000	10.1732138000
 1	20.6691154000	10.7306814000	9.7407558000
 1	21.5324041000	11.6307558000	10.6908773000
 6	7.3328736000	19.3970613000	21.0891623000
 1	6.7146047000	19.9920334000	21.5216203000
 1	6.9345570000	18.5284529000	21.0055644000
 1	8.1344700000	19.3338715000	21.6132564000
 6	14.5263882000	22.0774159000	10.4416915000
 1	13.7586074000	22.5934452000	10.1523143000
 1	14.9380491000	22.5671254000	11.1699573000
 6	15.5040661000	22.0465294000	9.3082977000
 1	15.7196571000	22.9447873000	9.0478583000
 1	16.3037028000	21.5946549000	9.5880289000
 1	15.1165550000	21.5805353000	8.5639554000
 6	5.5565906000	16.5132914000	18.1182237000
 1	5.0851084000	15.6754736000	18.2532664000
 1	5.9936888000	16.7367130000	18.9542021000
 6	4.5198059000	17.6033945000	17.8095548000
 1	3.9077376000	17.6809213000	18.5442511000
 1	4.9675882000	18.4417210000	17.6761198000
 1	4.0372176000	17.3707472000	17.0137677000
 6	16.0664960000	7.3789297000	9.9240279000
 1	15.4648420000	6.6645972000	10.1458837000
 1	16.2879840000	7.3334613000	8.9915905000
 1	16.8669951000	7.2979093000	10.4481221000
$end

$rem
METHOD		PBE
BASIS		6-31G**
SYM_IGNORE		TRUE
SCF_PRINT_FRGM		TRUE
CIS_N_ROOTS		12
CIS_SINGLETS		1
CIS_TRIPLETS		0
RPA		2
!required keywords
JOBTYPE		SP
SYM_IGNORE		TRUE
SUBSYSTEM		TRUE
SAVE_SUBSYSTEM		TRUE
GEN_SCFMAN		0
ECP		0
$end
--------------------------------------------------------------
 ----------------------------------------------------------------
             Standard Nuclear Orientation (Angstroms)
    I     Atom           X                Y                Z
 ----------------------------------------------------------------
    1      N      14.0720775000    14.4772325000    13.2163359000
    2      O       9.7109512000    18.5476720000    16.9529985000
    3      O      12.6699426000    19.5523330000    12.3564035000
    4      N      14.1978809000    12.5091885000    15.1593425000
    5      H      13.6499394000    13.1366178000    14.9463288000
    6      N      10.6968001000    15.7849540000    16.5189328000
    7      O      17.7504349000    10.6360029000    13.6758024000
    8      N      12.1814359000    15.9435682000    14.6317116000
    9      H      12.5053443000    15.1481361000    14.6714205000
   10      N      13.1221249000    11.7865154000    17.1941461000
   11      N      12.1227943000    13.8442504000    16.4446593000
   12      O      16.4108133000    12.1313491000    10.2097075000
   13      O      15.1190570000    10.0272714000    18.5288177000
   14      O      11.1290189000    10.3657151000    18.8545277000
   15      O       8.2990082000    15.1419389000    18.2749697000
   16      O      13.5562040000    16.9047300000     9.6341685000
   17      N      13.1459147000    16.6060343000    12.5358173000
   18      N      15.4965237000    12.5285272000    13.1505830000
   19      C      11.0143706000    14.5319951000    16.8417490000
   20      C      14.1170956000    11.7921351000    16.3321237000
   21      C      15.9650751000    11.1214508000    15.1360316000
   22      C      11.0953689000    17.8358760000    15.1810458000
   23      C      14.8723675000    13.5645586000    12.5930497000
   24      C      12.4922182000    16.8341150000    13.6409164000
   25      C      11.8319416000    18.0811204000    14.0187143000
   26      C      10.2214631000    13.7490278000    17.7741864000
   27      C      15.2977586000    10.9475056000    16.3546309000
   28      C      13.7878495000    15.4471905000    12.3009395000
   29      C      11.3070969000    16.4441565000    15.5508055000
   30      C      12.1288558000    12.6755315000    17.1472027000
   31      C      15.7878894000    10.0968648000    17.3722738000
   32      C      11.8793668000    19.3617450000    13.4496060000
   33      C      10.9226761000    12.5554385000    17.9638892000
   34      C      17.1459011000    10.4155106000    14.8643386000
   35      C       8.9442376000    19.5584112000    17.6118137000
   36      H       9.4508233000    20.3839259000    17.6632585000
   37      H       8.1255381000    19.7310394000    17.1214803000
   38      C      10.3528342000    18.8531819000    15.7951684000
   39      C      15.2363235000    12.1179618000    14.3756128000
   40      C      14.3593810000    15.1246861000    11.0045300000
   41      C      15.0539669000    13.9171689000    11.1762271000
   42      C      10.4278783000    11.5483961000    18.7950447000
   43      C      11.1261322000    20.3329703000    14.0524750000
   44      H      11.1215417000    21.1866756000    13.6859306000
   45      C      16.9661325000     9.4174721000    17.0587819000
   46      H      17.3312499000     8.8448704000    17.6938039000
   47      C      15.7139749000    13.3261514000    10.1105154000
   48      C      17.5980982000     9.5544504000    15.8707280000
   49      H      18.3676159000     9.0557279000    15.7163935000
   50      C      10.3763483000    20.0885228000    15.1826535000
   51      H       9.8702941000    20.7785556000    15.5427672000
   52      C      14.3384859000    15.7631269000     9.7584399000
   53      C       8.6321772000    19.0697299000    18.9670633000
   54      H       8.2624313000    18.1755258000    18.8979343000
   55      H       9.4568811000    19.0078014000    19.4734733000
   56      C       9.0115299000    13.9744433000    18.4301079000
   57      C      18.9503624000     9.9285128000    13.3515393000
   58      H      19.5718897000     9.9701792000    14.0942739000
   59      H      18.7477221000     8.9961052000    13.1746977000
   60      C       8.5615626000    12.9870674000    19.2757322000
   61      H       7.7659346000    13.1239969000    19.7387356000
   62      C      10.7456831000     9.4004821000    19.7917881000
   63      H      10.9055579000     9.7274130000    20.6904649000
   64      H       9.7994720000     9.2055198000    19.7001520000
   65      C      15.7161443000     9.4532460000    19.6551378000
   66      H      15.8120791000     8.4994678000    19.5104492000
   67      H      16.6046296000     9.8276419000    19.7676734000
   68      C       9.2425547000    11.8006900000    19.4622197000
   69      H       8.8995913000    11.1624303000    20.0457969000
   70      C      15.7371172000    13.9977373000     8.9128156000
   71      H      16.2209588000    13.6411817000     8.2022340000
   72      C      15.0565071000    15.1953969000     8.7359741000
   73      H      15.0882829000    15.6210433000     7.9096416000
   74      C      11.5619574000     8.1528774000    19.5377793000
   75      H      12.5043098000     8.3841001000    19.5056263000
   76      H      11.3162087000     7.7750646000    18.6776862000
   77      C      13.1587044000    20.8344929000    12.0573805000
   78      H      12.4076280000    21.4172194000    11.8660700000
   79      H      13.6124249000    21.1860035000    12.8386987000
   80      C      14.0485738000    20.8689550000    10.9657856000
   81      H      13.6168669000    20.3965673000    10.2359122000
   82      H      14.8240276000    20.3434580000    11.2165791000
   83      C       7.6674238000    19.9281068000    19.7290897000
   84      H       6.8486296000    20.0094367000    19.2146415000
   85      H       8.0457399000    20.8148554000    19.8223335000
   86      C      14.9650728000     9.6661315000    20.8608758000
   87      H      14.0426834000     9.4279437000    20.6759960000
   88      H      14.9800813000    10.6185596000    21.0489710000
   89      C       6.5831864000    16.3007567000    17.1086190000
   90      H       7.0632746000    17.1373790000    17.0218059000
   91      H       6.1201459000    16.1594752000    16.2678177000
   92      C      15.6267041000    10.9876648000    10.4400838000
   93      H      14.7328058000    11.1713958000    10.1105154000
   94      H      15.5578977000    10.8648484000    11.3998513000
   95      C      12.2346021000    18.4933919000     8.5301948000
   96      H      12.3991602000    19.0594225000     9.3002595000
   97      H      11.4025321000    18.0184458000     8.6893522000
   98      C      11.3324346000     7.1381324000    20.6132976000
   99      H      10.3858331000     6.9355137000    20.6534889000
  100      H      11.5874296000     7.5230023000    21.4653525000
  101      C      13.3497586000    17.4870061000     8.4273051000
  102      H      14.1617389000    17.9288152000     8.1331050000
  103      H      13.1190623000    16.8089684000     7.7713836000
  104      C      15.3510178000     8.9895681000    22.0601833000
  105      H      15.2307208000     8.0388870000    21.9122794000
  106      H      16.2998699000     9.1391348000    22.1904030000
  107      C      20.7262645000    10.0357673000    11.6361760000
  108      H      21.3901812000    10.0388088000    12.3435423000
  109      H      20.5674991000     9.1104399000    11.3950284000
  110      C      15.4689195000     8.5757414000    10.1908980000
  111      H      14.6112143000     8.5534716000     9.7391481000
  112      H      15.2768533000     8.5751951000    11.1426272000
  113      C      12.0829851000     5.8709485000    20.4187719000
  114      H      11.8791032000     5.2653169000    21.1357841000
  115      H      11.8295242000     5.4733359000    19.5827935000
  116      H      13.0251303000     6.0559573000    20.4139489000
  117      C      12.0693240000    19.3428850000     7.3485715000
  118      H      11.8390644000    18.7693987000     6.6026215000
  119      H      12.9319963000    19.7392755000     7.1492228000
  120      C      19.5528736000    10.5502129000    12.1522319000
  121      H      19.7093214000    11.4844120000    12.3564035000
  122      H      18.8886234000    10.5224830000    11.4448655000
  123      C      14.6614194000     9.3375091000    23.3286197000
  124      H      15.0088477000     8.7948156000    24.0408090000
  125      H      14.8113782000    10.2638327000    23.5295761000
  126      H      13.7189659000     9.1785619000    23.2337683000
  127      C       7.5527856000    15.2880186000    17.2066857000
  128      H       8.1550812000    15.4029118000    16.4559129000
  129      H       7.0928610000    14.4446305000    17.0684278000
  130      C      16.0262801000     9.8303456000     9.9079514000
  131      H      15.9623692000     9.9403089000     8.9465763000
  132      H      16.9727204000     9.7545513000    10.1105154000
  133      C      11.1206074000    20.3871893000     7.3935857000
  134      H      11.1446390000    20.8764371000     6.5688609000
  135      H      10.2432576000    20.0172803000     7.5205901000
  136      H      11.3280117000    20.9770242000     8.1218515000
  137      C      21.3083710000    10.7266657000    10.4561603000
  138      H      22.1006944000    10.2640489000    10.1732138000
  139      H      20.6691154000    10.7306814000     9.7407558000
  140      H      21.5324041000    11.6307558000    10.6908773000
  141      C       7.3328736000    19.3970613000    21.0891623000
  142      H       6.7146047000    19.9920334000    21.5216203000
  143      H       6.9345570000    18.5284529000    21.0055644000
  144      H       8.1344700000    19.3338715000    21.6132564000
  145      C      14.5263882000    22.0774159000    10.4416915000
  146      H      13.7586074000    22.5934452000    10.1523143000
  147      H      14.9380491000    22.5671254000    11.1699573000
  148      C      15.5040661000    22.0465294000     9.3082977000
  149      H      15.7196571000    22.9447873000     9.0478583000
  150      H      16.3037028000    21.5946549000     9.5880289000
  151      H      15.1165550000    21.5805353000     8.5639554000
  152      C       5.5565906000    16.5132914000    18.1182237000
  153      H       5.0851084000    15.6754736000    18.2532664000
  154      H       5.9936888000    16.7367130000    18.9542021000
  155      C       4.5198059000    17.6033945000    17.8095548000
  156      H       3.9077376000    17.6809213000    18.5442511000
  157      H       4.9675882000    18.4417210000    17.6761198000
  158      H       4.0372176000    17.3707472000    17.0137677000
  159      C      16.0664960000     7.3789297000     9.9240279000
  160      H      15.4648420000     6.6645972000    10.1458837000
  161      H      16.2879840000     7.3334613000     8.9915905000
  162      H      16.8669951000     7.2979093000    10.4481221000
 ----------------------------------------------------------------
 Nuclear Repulsion Energy =       13987.39809617 hartrees
 There are      293 alpha and      293 beta electrons
 Requested basis set is 6-31G(d,p)
 There are 566 shells and 1610 basis functions

 Total QAlloc Memory Limit   2000 MB
 Mega-Array Size       188 MB
 MEM_STATIC part       192 MB

 A cutoff of  1.0D-12 yielded  35166 shell pairs
 There are    310040 function pairs
 Smallest overlap matrix eigenvalue = 1.72E-04

 Scale SEOQF with 1.000000e-03/1.000000e-03/1.000000e-03

 Standard Electronic Orientation quadrupole field applied
 Nucleus-field energy     =    -0.0000000199 hartrees
 Guess from superposition of atomic densities
 Warning:  Energy on first SCF cycle will be non-variational
 SAD guess density has 586.000001 electrons
 A restricted Kohn-Sham SCF calculation will be
 performed using Pulay DIIS extrapolation
 Exchange:  PBE      Correlation:  PBE
 Using SG-1 standard quadrature grid
 SCF converges when DIIS error is below 1.0E-08
 using 8 threads for integral computing
 -------------------------------------------------------
 OpenMP Integral computing Module                
 Release: version 1.0, May 2013, Q-Chem Inc. Pittsburgh 
 -------------------------------------------------------
 ---------------------------------------
  Cycle       Energy         DIIS Error
 ---------------------------------------
    1   -3544.7381604184      2.10E-02
    2   -3519.7203752504      2.73E-03
    3   -3518.3811684178      3.43E-03
    4   -3521.9156710490      9.04E-04
    5   -3522.1537642590      4.18E-04
    6   -3522.2107806264      1.75E-04
    7   -3522.2169124923      1.13E-04
    8   -3522.2208494205      6.25E-05
    9   -3522.2225638443      2.07E-05
   10   -3522.2227038202      9.48E-06
   11   -3522.2227323390      4.81E-06
   12   -3522.2227420471      2.04E-06
   13   -3522.2227436180      6.46E-07
   14   -3522.2227437480      2.01E-07
   15   -3522.2227437603      7.09E-08
   16   -3522.2227437613      3.04E-08
   17   -3522.2227437617      1.21E-08
   18   -3522.2227437620      4.63E-09 Convergence criterion met
 ---------------------------------------
 SCF time:  CPU 1929.77 s  wall 308.22 s
 SCF   energy in the final basis set = -3522.22274376
 Total energy in the final basis set = -3522.22274376

 CIS/TDDFT memory preview:
 --------------------------
	NOV = NOa*NVa + NOb*NVb = 771762
	NRoots = 12, max iter = 30, max vectors = 360
	Size of each subspace vector: 5.89 Mb
	Davidson algorithm may add up to 2 x NOV x NRoots (= 141.3 Mb) per iteration
	Max memory = 4239.4 Mb (worst case scenario)
	Currently available memory = 2000.0 Mb

	In case of problems:
	(a) increase memory (MEM_TOTAL = 4240 can hold 360 subspace vectors), or
	(b) request fewer states (CIS_N_ROOTS = 5 will fit in current MEM_TOTAL), or
	(c) reduce MAX_CIS_SUBSPACE (= 169 will fit in current MEM_TOTAL).
	Reducing MAX_CIS_SUBSPACE may hamper convergence.

 CIS energy converged when residual is below 10e- 6

 Direct TDDFT calculation will be performed
 Exchange:  PBE      Correlation:  PBE
 Using SG-1 standard quadrature grid
 ---------------------------------------------------
 Iter    Rts Conv    Rts Left    Ttl Dev     Max Dev
 ---------------------------------------------------
   1         0          12      0.001990    0.000232
   2         0          12      0.000872    0.000157
   3         0          12      0.000399    0.000085
   4         0          12      0.000164    0.000046
   5         0          12      0.000091    0.000021
   6         1          11      0.000051    0.000013
   7         3           9      0.000025    0.000008
   8         6           6      0.000016    0.000004
   9         9           3      0.000011    0.000003
  10        12           0      0.000008    0.000001    Roots Converged
 ---------------------------------------------------
 
 ---------------------------------------------------
             TDDFT Excitation Energies              
 ---------------------------------------------------

 Excited state   1: excitation energy (eV) =    1.5363
 Total energy for state  1:                 -3522.16628625 au
    Multiplicity: Singlet 
    Trans. Mom.: -1.2871 X  -0.2351 Y   1.9890 Z
    Strength   :     0.2133362505
    X: D(  291) --> V(    1) amplitude = -0.2619
    X: D(  293) --> V(    1) amplitude =  0.9442

 Excited state   2: excitation energy (eV) =    1.6557
 Total energy for state  2:                 -3522.16189840 au
    Multiplicity: Singlet 
    Trans. Mom.: -1.2995 X   2.3052 Y  -0.5646 Z
    Strength   :     0.2969830954
    X: D(  293) --> V(    2) amplitude =  0.9556

 Excited state   3: excitation energy (eV) =    1.8835
 Total energy for state  3:                 -3522.15352581 au
    Multiplicity: Singlet 
    Trans. Mom.:  0.0603 X   0.0006 Y  -0.0695 Z
    Strength   :     0.0003908960
    X: D(  291) --> V(    1) amplitude =  0.2321
    X: D(  292) --> V(    1) amplitude =  0.9683

 Excited state   4: excitation energy (eV) =    2.0118
 Total energy for state  4:                 -3522.14881191 au
    Multiplicity: Singlet 
    Trans. Mom.: -0.7914 X  -0.4805 Y   1.6630 Z
    Strength   :     0.1785522312
    X: D(  291) --> V(    1) amplitude =  0.9216
    X: D(  292) --> V(    1) amplitude = -0.2149
    X: D(  293) --> V(    1) amplitude =  0.2680

 Excited state   5: excitation energy (eV) =    2.1011
 Total energy for state  5:                 -3522.14553152 au
    Multiplicity: Singlet 
    Trans. Mom.:  0.8823 X  -1.0583 Y  -0.0560 Z
    Strength   :     0.0978836027
    X: D(  290) --> V(    2) amplitude = -0.4876
    X: D(  291) --> V(    2) amplitude =  0.8028

 Excited state   6: excitation energy (eV) =    2.1344
 Total energy for state  6:                 -3522.14430730 au
    Multiplicity: Singlet 
    Trans. Mom.: -0.1520 X  -0.6374 Y  -0.0622 Z
    Strength   :     0.0226562663
    X: D(  290) --> V(    1) amplitude =  0.6725
    X: D(  291) --> V(    2) amplitude =  0.3902
    X: D(  292) --> V(    2) amplitude =  0.5366
    X: D(  293) --> V(    3) amplitude = -0.2422

 Excited state   7: excitation energy (eV) =    2.1529
 Total energy for state  7:                 -3522.14362503 au
    Multiplicity: Singlet 
    Trans. Mom.:  0.6035 X  -0.5927 Y   0.1394 Z
    Strength   :     0.0387662693
    X: D(  290) --> V(    2) amplitude =  0.8334
    X: D(  291) --> V(    2) amplitude =  0.3592
    X: D(  292) --> V(    2) amplitude = -0.3413

 Excited state   8: excitation energy (eV) =    2.2273
 Total energy for state  8:                 -3522.14089136 au
    Multiplicity: Singlet 
    Trans. Mom.: -0.0357 X   0.0028 Y   0.0364 Z
    Strength   :     0.0001423513
    X: D(  290) --> V(    1) amplitude = -0.6484
    X: D(  292) --> V(    2) amplitude =  0.6810

 Excited state   9: excitation energy (eV) =    2.3574
 Total energy for state  9:                 -3522.13611195 au
    Multiplicity: Singlet 
    Trans. Mom.: -0.1681 X  -0.2246 Y   0.3438 Z
    Strength   :     0.0113718353
    X: D(  289) --> V(    1) amplitude =  0.9605

 Excited state  10: excitation energy (eV) =    2.4153
 Total energy for state 10:                 -3522.13398407 au
    Multiplicity: Singlet 
    Trans. Mom.: -0.0452 X   0.3759 Y  -0.2677 Z
    Strength   :     0.0127213470
    X: D(  288) --> V(    1) amplitude =  0.7363
    X: D(  289) --> V(    2) amplitude =  0.6535

 Excited state  11: excitation energy (eV) =    2.4433
 Total energy for state 11:                 -3522.13295463 au
    Multiplicity: Singlet 
    Trans. Mom.: -0.0308 X  -0.2307 Y   0.2468 Z
    Strength   :     0.0068914631
    X: D(  287) --> V(    1) amplitude =  0.2811
    X: D(  288) --> V(    1) amplitude = -0.6093
    X: D(  289) --> V(    2) amplitude =  0.6959

 Excited state  12: excitation energy (eV) =    2.5301
 Total energy for state 12:                 -3522.12976457 au
    Multiplicity: Singlet 
    Trans. Mom.: -0.0683 X  -0.0524 Y   0.1817 Z
    Strength   :     0.0025066534
    X: D(  287) --> V(    2) amplitude =  0.2311
    X: D(  288) --> V(    2) amplitude = -0.9457
 
 ---------------------------------------------------
  SETman timing summary (seconds)
  CPU time              9968.85s
  System time              0.01s
  Wall time             1380.03s
 
 --------------------------------------------------------------
 
                    Orbital Energies (a.u.)
 --------------------------------------------------------------
 
 Alpha MOs
 -- Occupied --
-18.7961 -18.7953 -18.7916 -18.7860 -18.7860 -18.7802 -18.7625 -18.7589
-14.0226 -14.0216 -13.9833 -13.9832 -13.9823 -13.9804 -13.9697 -13.9690
 -9.9612  -9.9609  -9.9604  -9.9589  -9.9516  -9.9509  -9.9471  -9.9455
 -9.9441  -9.9437  -9.9430  -9.9426  -9.9422  -9.9419  -9.9342  -9.9316
 -9.9155  -9.9143  -9.9118  -9.9113  -9.9068  -9.9039  -9.8980  -9.8975
 -9.8966  -9.8962  -9.8848  -9.8848  -9.8841  -9.8839  -9.8784  -9.8778
 -9.8764  -9.8759  -9.8756  -9.8738  -9.8727  -9.8709  -9.8708  -9.8693
 -9.8585  -9.8582  -9.8566  -9.8559  -9.8540  -9.8515  -9.8495  -9.8469
 -9.8469  -9.8457  -9.8432  -9.8432  -9.8429  -9.8428  -9.8411  -9.8394
 -9.8346  -9.8342  -9.8342  -9.8339  -9.8337  -9.8311  -9.8257  -9.8255
 -0.9832  -0.9701  -0.9683  -0.9674  -0.9664  -0.9654  -0.9633  -0.9416
 -0.9255  -0.9220  -0.8805  -0.8647  -0.8436  -0.8107  -0.8028  -0.7828
 -0.7825  -0.7802  -0.7744  -0.7668  -0.7664  -0.7652  -0.7626  -0.7597
 -0.7515  -0.7482  -0.7453  -0.7387  -0.7101  -0.7069  -0.7063  -0.7053
 -0.7017  -0.6946  -0.6895  -0.6888  -0.6867  -0.6788  -0.6741  -0.6735
 -0.6649  -0.6537  -0.6493  -0.6481  -0.6357  -0.6224  -0.6181  -0.6171
 -0.6102  -0.6044  -0.6019  -0.5996  -0.5989  -0.5890  -0.5842  -0.5821
 -0.5786  -0.5643  -0.5571  -0.5561  -0.5531  -0.5501  -0.5481  -0.5472
 -0.5455  -0.5442  -0.5396  -0.5338  -0.5334  -0.5324  -0.5288  -0.5237
 -0.5170  -0.5142  -0.5106  -0.4958  -0.4895  -0.4843  -0.4803  -0.4789
 -0.4770  -0.4737  -0.4715  -0.4713  -0.4697  -0.4679  -0.4652  -0.4592
 -0.4569  -0.4567  -0.4555  -0.4437  -0.4367  -0.4347  -0.4326  -0.4298
 -0.4286  -0.4265  -0.4257  -0.4229  -0.4221  -0.4183  -0.4163  -0.4152
 -0.4146  -0.4130  -0.4115  -0.4108  -0.4082  -0.4072  -0.4049  -0.4043
 -0.4028  -0.3997  -0.3982  -0.3974  -0.3941  -0.3938  -0.3916  -0.3887
 -0.3835  -0.3810  -0.3764  -0.3742  -0.3707  -0.3694  -0.3686  -0.3648
 -0.3637  -0.3598  -0.3595  -0.3584  -0.3581  -0.3560  -0.3543  -0.3535
 -0.3498  -0.3495  -0.3485  -0.3475  -0.3459  -0.3455  -0.3442  -0.3429
 -0.3413  -0.3378  -0.3327  -0.3317  -0.3299  -0.3292  -0.3264  -0.3233
 -0.3221  -0.3189  -0.3187  -0.3186  -0.3140  -0.3107  -0.3052  -0.3036
 -0.3032  -0.3023  -0.2999  -0.2986  -0.2966  -0.2964  -0.2945  -0.2924
 -0.2909  -0.2900  -0.2873  -0.2871  -0.2861  -0.2858  -0.2839  -0.2836
 -0.2820  -0.2812  -0.2793  -0.2752  -0.2729  -0.2722  -0.2690  -0.2664
 -0.2640  -0.2625  -0.2616  -0.2588  -0.2572  -0.2548  -0.2519  -0.2423
 -0.2401  -0.2385  -0.2340  -0.2281  -0.2238  -0.2209  -0.2184  -0.2168
 -0.2056  -0.2035  -0.2030  -0.2014  -0.1968  -0.1942  -0.1900  -0.1848
 -0.1796  -0.1708  -0.1662  -0.1654  -0.1380
 -- Virtual --
 -0.0972  -0.0932  -0.0483  -0.0260  -0.0154  -0.0122  -0.0089   0.0128
  0.0178   0.0205   0.0433   0.0454   0.0490   0.0536   0.0555   0.0662
  0.0826   0.0847   0.0851   0.0888   0.0932   0.0943   0.0949   0.0970
  0.1004   0.1015   0.1018   0.1047   0.1079   0.1085   0.1094   0.1132
  0.1138   0.1157   0.1166   0.1216   0.1233   0.1279   0.1283   0.1286
  0.1306   0.1330   0.1342   0.1377   0.1421   0.1450   0.1458   0.1476
  0.1503   0.1507   0.1532   0.1546   0.1569   0.1575   0.1589   0.1608
  0.1641   0.1654   0.1661   0.1675   0.1691   0.1701   0.1723   0.1736
  0.1746   0.1754   0.1767   0.1781   0.1795   0.1805   0.1823   0.1827
  0.1855   0.1876   0.1877   0.1884   0.1910   0.1914   0.1924   0.1936
  0.1943   0.1951   0.1961   0.1971   0.1982   0.1987   0.2003   0.2027
  0.2034   0.2043   0.2047   0.2063   0.2077   0.2081   0.2093   0.2110
  0.2111   0.2116   0.2137   0.2145   0.2162   0.2166   0.2171   0.2190
  0.2202   0.2208   0.2211   0.2220   0.2233   0.2251   0.2257   0.2275
  0.2299   0.2313   0.2325   0.2340   0.2392   0.2400   0.2412   0.2447
  0.2456   0.2465   0.2485   0.2499   0.2517   0.2529   0.2545   0.2563
  0.2577   0.2608   0.2629   0.2652   0.2660   0.2683   0.2713   0.2729
  0.2737   0.2754   0.2762   0.2777   0.2803   0.2808   0.2833   0.2857
  0.2864   0.2896   0.2910   0.2949   0.2959   0.2969   0.3017   0.3095
  0.3110   0.3163   0.3213   0.3245   0.3273   0.3308   0.3327   0.3336
  0.3362   0.3448   0.3489   0.3574   0.3597   0.3646   0.3655   0.3692
  0.3709   0.3748   0.3858   0.3906   0.4069   0.4120   0.4137   0.4221
  0.4246   0.4346   0.4359   0.4485   0.4506   0.4524   0.4558   0.4564
  0.4585   0.4598   0.4605   0.4619   0.4657   0.4674   0.4697   0.4705
  0.4751   0.4760   0.4767   0.4773   0.4799   0.4814   0.4839   0.4867
[...]
  1.1828   1.1885   1.1888   1.1895   1.1918   1.1956   1.2001   1.2024
  1.2059   1.2096   1.2105   1.2121   1.2145   1.2150   1.2161   1.2210
  1.2225   1.2248   1.2316   1.2349   1.2387   1.2449   1.2469   1.2526
  1.2572   1.2582   1.2617   1.2662   1.2699   1.2728   1.2752   1.2762
  1.2777   1.2795   1.2818   1.2847   1.2875   1.2890   1.2925   1.2952
  1.2961   1.2999   1.3037   1.3060   1.3099   1.3153   1.3188   1.3244
  1.3254   1.3285   1.3297   1.3354   1.3366   1.3388   1.3406   1.3460
  1.3510   1.3530   1.3577   1.3610   1.3620   1.3651   1.3685   1.3732
  1.3751   1.3791   1.3829   1.3843   1.3862   1.3909   1.3925   1.3937
  1.3961   1.4042   1.4091   1.4098   1.4118   1.4186   1.4225   1.4254
  1.4282   1.4378   1.4431   1.4483   1.4529   1.4577   1.4609   1.4643
  1.4663   1.4669   1.4700   1.4715   1.4779   1.4820   1.4938   1.4995
  1.5082   1.5098   1.5140   1.5201   1.5253   1.5313   1.5345   1.5371
  1.5450   1.5501   1.5531   1.5588   1.5644   1.5687   1.5704   1.5748
  1.5780   1.5795   1.5806   1.5842   1.5885   1.5908   1.5934   1.5940
  1.5966   1.5990   1.6020   1.6036   1.6114   1.6172   1.6189   1.6223
  1.6243   1.6260   1.6327   1.6357   1.6383   1.6402   1.6441   1.6470
  1.6500   1.6504   1.6515   1.6557   1.6560   1.6581   1.6604   1.6636
  1.6664   1.6693   1.6732   1.6739   1.6762   1.6787   1.6801   1.6805
  1.6876   1.6909   1.6925   1.6938   1.6959   1.6984   1.7002   1.7046
  1.7068   1.7135   1.7178   1.7198   1.7258   1.7298   1.7326   1.7352
  1.7392   1.7399   1.7456   1.7491   1.7522   1.7565   1.7591   1.7645
  1.7727   1.7781   1.7798   1.7851   1.7896   1.7990   1.7999   1.8029
  1.8034   1.8071   1.8113   1.8168   1.8176   1.8210   1.8314   1.8316
  1.8348   1.8380   1.8409   1.8427   1.8454   1.8490   1.8508   1.8515
  1.8547   1.8578   1.8589   1.8613   1.8634   1.8702   1.8720   1.8742
  1.8768   1.8775   1.8828   1.8855   1.8886   1.8915   1.8926   1.8951
  1.8967   1.8992   1.9001   1.9078   1.9105   1.9153   1.9176   1.9186
  1.9220   1.9230   1.9301   1.9308   1.9316   1.9341   1.9367   1.9377
  1.9400   1.9409   1.9436   1.9448   1.9476   1.9490   1.9505   1.9613
  1.9624   1.9666   1.9679   1.9719   1.9797   1.9827   1.9865   1.9921
  1.9938   1.9959   2.0027   2.0044   2.0077   2.0105   2.0155   2.0170
  2.0202   2.0244   2.0299   2.0322   2.0341   2.0380   2.0428   2.0458
  2.0462   2.0480   2.0482   2.0488   2.0490   2.0522   2.0531   2.0545
  2.0551   2.0554   2.0560   2.0587   2.0600   2.0641   2.0670   2.0763
  2.0815   2.0913   2.1001   2.1087   2.1178   2.1224   2.1257   2.1267
  2.1332   2.1448   2.1519   2.1546   2.1586   2.1653   2.1669   2.1680
  2.1701   2.1714   2.1727   2.1750   2.1761   2.1775   2.1798   2.1801
  2.1814   2.1840   2.1859   2.1866   2.1883   2.1916   2.1952   2.1977
  2.1989   2.2016   2.2035   2.2048   2.2052   2.2092   2.2107   2.2130
  2.2146   2.2155   2.2171   2.2179   2.2194   2.2199   2.2217   2.2220
  2.2224   2.2238   2.2252   2.2274   2.2276   2.2296   2.2329   2.2341
  2.2375   2.2397   2.2414   2.2435   2.2463   2.2480   2.2512   2.2527
  2.2561   2.2564   2.2594   2.2618   2.2635   2.2649   2.2676   2.2690
  2.2708   2.2753   2.2767   2.2791   2.2825   2.2830   2.2868   2.2880
  2.2888   2.2929   2.2944   2.2956   2.2971   2.2973   2.2990   2.3041
  2.3054   2.3094   2.3103   2.3130   2.3135   2.3185   2.3234   2.3253
  2.3267   2.3329   2.3343   2.3351   2.3371   2.3384   2.3428   2.3439
  2.3455   2.3460   2.3475   2.3477   2.3519   2.3549   2.3553   2.3569
  2.3582   2.3617   2.3674   2.3699   2.3710   2.3748   2.3761   2.3783
  2.3796   2.3808   2.3821   2.3838   2.3849   2.3879   2.3921   2.3942
  2.3962   2.3971   2.3980   2.4008   2.4035   2.4073   2.4104   2.4143
  2.4202   2.4291   2.4303   2.4311   2.4380   2.4389   2.4424   2.4434
  2.4502   2.4544   2.4585   2.4611   2.4651   2.4670   2.4697   2.4775
  2.4837   2.4855   2.4875   2.4896   2.4909   2.4970   2.4992   2.5019
  2.5049   2.5107   2.5115   2.5123   2.5142   2.5179   2.5201   2.5262
  2.5275   2.5290   2.5335   2.5343   2.5389   2.5401   2.5414   2.5435
  2.5471   2.5488   2.5527   2.5556   2.5601   2.5626   2.5688   2.5719
  2.5763   2.5784   2.5797   2.5807   2.5818   2.5855   2.5908   2.5979
  2.5998   2.6023   2.6092   2.6117   2.6170   2.6199   2.6231   2.6248
  2.6282   2.6296   2.6327   2.6384   2.6396   2.6464   2.6507   2.6541
  2.6561   2.6571   2.6642   2.6670   2.6689   2.6730   2.6751   2.6768
  2.6788   2.6859   2.6978   2.6992   2.7065   2.7090   2.7165   2.7168
  2.7220   2.7243   2.7289   2.7334   2.7360   2.7383   2.7431   2.7458
  2.7460   2.7491   2.7519   2.7534   2.7569   2.7617   2.7657   2.7685
  2.7734   2.7761   2.7821   2.7881   2.7926   2.7946   2.7978   2.7999
  2.8022   2.8039   2.8050   2.8056   2.8094   2.8119   2.8136   2.8146
  2.8202   2.8215   2.8282   2.8349   2.8377   2.8402   2.8470   2.8523
  2.8564   2.8629   2.8720   2.8750   2.8794   2.8845   2.8882   2.8939
  2.8986   2.9014   2.9062   2.9116   2.9144   2.9150   2.9183   2.9214
  2.9263   2.9360   2.9419   2.9493   2.9505   2.9551   2.9566   2.9605
  2.9702   2.9776   2.9850   2.9871   2.9928   2.9948   3.0040   3.0060
  3.0165   3.0221   3.0230   3.0273   3.0303   3.0359   3.0393   3.0400
  3.0444   3.0459   3.0486   3.0490   3.0508   3.0537   3.0555   3.0604
  3.0629   3.0667   3.0785   3.0803   3.0819   3.0881   3.0943   3.0960
  3.1097   3.1159   3.1174   3.1197   3.1264   3.1309   3.1327   3.1345
  3.1355   3.1408   3.1421   3.1445   3.1460   3.1491   3.1505   3.1544
  3.1607   3.1617   3.1651   3.1705   3.1744   3.1774   3.1810   3.1845
  3.1847   3.1908   3.1976   3.2039   3.2103   3.2164   3.2216   3.2421
  3.2462   3.2536   3.2554   3.2633   3.2675   3.2756   3.2888   3.2953
  3.3068   3.3104   3.3237   3.3865   3.4257   3.4888   3.5040   3.5148
  3.5153   3.5237   3.5239   3.5257   3.5353   3.5393   3.5422   3.5434
  3.5451   3.5524   3.5663   3.5723   3.5739   3.5775   3.5802   3.5826
  3.5862   3.5897   3.5921   3.5999   3.6023   3.6038   3.6128   3.6130
  3.6138   3.6246   3.6247   3.6348   3.6361   3.6373   3.6399   3.6422
  3.6425   3.6494   3.6505   3.6617   3.6625   3.6652   3.6710   3.6721
  3.6726   3.6729   3.6734   3.6746   3.6751   3.6762   3.6770   3.6787
  3.6867   3.6887   3.7110   3.7149   3.7176   3.7194   3.7372   3.7711
  3.7755   3.7761   3.7810   3.7862   3.7880   3.7981   3.8000   3.8092
  3.8109   3.8160   3.8200   3.8212   3.8312   3.8333   3.8435   3.8678
  3.8769   3.8879   3.8985   3.9029   3.9086   3.9186   3.9409   3.9504
  3.9529   3.9663   3.9693   3.9766   3.9824   4.0304   4.0351   4.0377
  4.0473   4.0579   4.0614   4.0635   4.0659   4.0678   4.0761   4.0778
  4.0908   4.1264   4.1330   4.1464   4.1623   4.1798   4.1928   4.2097
  4.2157   4.2210   4.2333   4.2489   4.2555   4.2580   4.2625   4.2695
  4.2791   4.2841   4.3013   4.3072   4.3183   4.3731   4.3766   4.3829
  4.3913   4.3944   4.3974   4.3993   4.4075   4.4160   4.4223   4.4304
  4.4419   4.4505   4.4530   4.4736   4.4895   4.4918   4.5109   4.5188
  4.5214   4.5280   4.5320   4.5348   4.5360   4.5482   4.5486   4.5566
  4.5655   4.5857   4.5899   4.6033   4.6069   4.6324   4.6409   4.6729
  4.6856   4.6966   4.7002   4.7074   4.7156   4.7174   4.7680   4.8032
  4.8155   4.9203   4.9326   4.9396   4.9496
 --------------------------------------------------------------
 
          Ground-State Mulliken Net Atomic Charges

     Atom                 Charge (a.u.)
  ----------------------------------------
      1 N                    -0.625348
      2 O                    -0.491142
      3 O                    -0.492562
      4 N                    -0.507337
      5 H                     0.234653
      6 N                    -0.512114
      7 O                    -0.486170
      8 N                    -0.512104
      9 H                     0.237213
     10 N                    -0.499058
     11 N                    -0.621192
     12 O                    -0.522301
     13 O                    -0.474255
     14 O                    -0.484722
     15 O                    -0.482950
     16 O                    -0.474053
     17 N                    -0.495435
     18 N                    -0.514141
     19 C                     0.419708
     20 C                     0.469891
     21 C                     0.001810
     22 C                    -0.010517
     23 C                     0.425749
     24 C                     0.482395
     25 C                    -0.002841
     26 C                     0.060041
     27 C                    -0.016475
     28 C                     0.418294
     29 C                     0.482058
     30 C                     0.419853
     31 C                     0.279482
     32 C                     0.270865
     33 C                     0.013743
     34 C                     0.266922
     35 C                     0.026301
     36 H                     0.116244
     37 H                     0.115444
     38 C                     0.279119
     39 C                     0.488524
     40 C                     0.014772
     41 C                     0.060739
     42 C                     0.257448
     43 C                    -0.084794
     44 H                     0.055352
     45 C                    -0.095036
     46 H                     0.056887
     47 C                     0.212511
     48 C                    -0.086881
     49 H                     0.056974
     50 C                    -0.094335
     51 H                     0.056651
     52 C                     0.252136
     53 C                    -0.247235
     54 H                     0.152014
     55 H                     0.128909
     56 C                     0.217990
     57 C                     0.022931
     58 H                     0.114945
     59 H                     0.113779
     60 C                    -0.071648
     61 H                     0.054163
     62 C                     0.030937
     63 H                     0.111855
     64 H                     0.113460
     65 C                     0.041229
     66 H                     0.106508
     67 H                     0.112434
     68 C                    -0.091343
     69 H                     0.055919
     70 C                    -0.072200
     71 H                     0.056024
     72 C                    -0.092395
     73 H                     0.057586
     74 C                    -0.244279
     75 H                     0.141964
     76 H                     0.127001
     77 C                     0.047716
     78 H                     0.101380
     79 H                     0.110378
     80 C                    -0.248272
     81 H                     0.134637
     82 H                     0.130648
     83 C                    -0.250385
     84 H                     0.118544
     85 H                     0.115602
     86 C                    -0.250419
     87 H                     0.139048
     88 H                     0.129885
     89 C                    -0.248364
     90 H                     0.123730
     91 H                     0.114996
     92 C                     0.067863
     93 H                     0.088197
     94 H                     0.118942
     95 C                    -0.252092
     96 H                     0.144017
     97 H                     0.122923
     98 C                    -0.248738
     99 H                     0.118927
    100 H                     0.116888
    101 C                     0.045971
    102 H                     0.099945
    103 H                     0.103276
    104 C                    -0.242250
    105 H                     0.115133
    106 H                     0.115233
    107 C                    -0.235251
    108 H                     0.109131
    109 H                     0.109440
    110 C                    -0.224239
    111 H                     0.110766
    112 H                     0.111149
    113 C                    -0.355822
    114 H                     0.119996
    115 H                     0.127667
    116 H                     0.121811
    117 C                    -0.240095
    118 H                     0.115239
    119 H                     0.111302
    120 C                    -0.240808
    121 H                     0.130737
    122 H                     0.147422
    123 C                    -0.355076
    124 H                     0.123582
    125 H                     0.129622
    126 H                     0.124544
    127 C                     0.074361
    128 H                     0.096924
    129 H                     0.067560
    130 C                    -0.234435
    131 H                     0.100948
    132 H                     0.112768
    133 C                    -0.343328
    134 H                     0.118710
    135 H                     0.123382
    136 H                     0.116309
    137 C                    -0.353263
    138 H                     0.118526
    139 H                     0.129898
    140 H                     0.126989
    141 C                    -0.360687
    142 H                     0.118208
    143 H                     0.134044
    144 H                     0.127814
    145 C                    -0.238218
    146 H                     0.111358
    147 H                     0.113703
    148 C                    -0.356315
    149 H                     0.123266
    150 H                     0.129743
    151 H                     0.124228
    152 C                    -0.237835
    153 H                     0.107590
    154 H                     0.127229
    155 C                    -0.367853
    156 H                     0.119241
    157 H                     0.121659
    158 H                     0.123757
    159 C                    -0.335762
    160 H                     0.120515
    161 H                     0.115326
    162 H                     0.112603
  ----------------------------------------
  Sum of atomic charges =     0.000000

 -----------------------------------------------------------------
                    Cartesian Multipole Moments
 -----------------------------------------------------------------
    Charge (ESU x 10^10)
                 0.0000
    Dipole Moment (Debye)
         X       0.3827      Y      -0.7325      Z       1.0233
       Tot       1.3153
    Quadrupole Moments (Debye-Ang)
        XX    -404.7623     XY     -50.9929     YY    -364.3882
        XZ      37.8456     YZ     -54.6525     ZZ    -382.8378
    Octopole Moments (Debye-Ang^2)
       XXX  -41107.0096    XXY    3072.2855    XYY  -11314.3008
       YYY   15057.6008    XXZ   -4937.4014    XYZ   -2212.4188
       YYZ   -4383.0933    XZZ  -12536.2867    YZZ    3977.5561
       ZZZ  -17743.9635
    Hexadecapole Moments (Debye-Ang^3)
      XXXX ************   XXXY  449842.2588   XXYY -436549.1202
      XYYY  490341.9593   YYYY -452912.8340   XXXZ -564309.1658
      XXYZ   -1153.9547   XYYZ -131117.1660   YYYZ  209574.7005
      XXZZ -516116.4566   XYZZ  127133.1622   YYZZ -135320.1667
      XZZZ -574072.7651   YZZZ  216835.2596   ZZZZ -576798.9343
 -----------------------------------------------------------------
 Total job time:  1728.69s(wall), 12062.87s(cpu) 
 Wed Feb 12 04:02:51 2025

        *************************************************************
        *                                                           *
        *  Thank you very much for using Q-Chem.  Have a nice day.  *
        *                                                           *
        *************************************************************


Copy Fragment Subsystem from /scratch/sanghita/qchem197645/Frg2s1/
Copy MO Coefficient from /scratch/sanghita/qchem197645/Frg2s1/
Alpha electrons: 293
 Beta electrons: 293
Copy Set Amplitude from /scratch/sanghita/qchem197645/Frg2s1/

Total alpha electrons: 586
Total  beta electrons: 586

-----------------------------------------------------------------
 Done with SCF on isolated fragments
-----------------------------------------------------------------

-----------------------------------------------------------------
 Start with Direct Coulomb-Exchange Integration 
-----------------------------------------------------------------

 RPA/TDDFT Excited States --
 Donor    : State 1 to 6
 Acceptor : State 1 to 6
                                              Dipole-Dipole
              Coulomb (eV)    Exchange (eV)  Interaction (eV)
           ---------------  ---------------  ---------------
 ( 1, 1):    0.00049133384                0   0.000488832542
 ( 1, 2):  -0.000471160683                0  -0.000461331865
 ( 1, 3):  -3.87171962E-05                0  -1.62810171E-05
 ( 1, 4):   0.000438923663                0   0.000447382851
 ( 1, 5):   0.000134621544                0   0.000138050639
 ( 1, 6):    0.00016143274                0   9.80786429E-05
 ( 2, 1):  -0.000488549942                0  -0.000461331891
 ( 2, 2):   -0.00148418432                0   -0.00139201959
 ( 2, 3):   5.97661194E-05                0   2.46458644E-05
 ( 2, 4):  -0.000183151844                0  -0.000167122173
 ( 2, 5):   0.000816463756                0   0.000756175435
 ( 2, 6):   0.000416060962                0   0.000221145358
 ( 3, 1):   6.07863537E-06                0  -1.62811313E-05
 ( 3, 2):  -7.20753208E-06                0   2.46455553E-05
 ( 3, 3):  -8.77518913E-07                0   4.99723886E-07
 ( 3, 4):     5.111073E-06                0  -1.61609384E-05
 ( 3, 5):    2.3676529E-06                0   -9.0739761E-06
 ( 3, 6):   3.76571617E-06                0  -5.18049874E-06
 ( 4, 1):   0.000451465052                0   0.000447382942
 ( 4, 2):  -0.000131465128                0  -0.000167121961
 ( 4, 3):  -3.86248858E-05                0  -1.61608962E-05
 ( 4, 4):   0.000365142162                0    0.00037410734
 ( 4, 5):  -2.33659459E-05                0   2.79847026E-06
 ( 4, 6):   5.41099051E-05                0   4.35199967E-05
 ( 5, 1):   0.000167690992                0    0.00013805075
 ( 5, 2):   0.000813453278                0   0.000756175929
 ( 5, 3):  -2.43049505E-05                0  -9.07415277E-06
 ( 5, 4):   2.34596663E-05                0   2.79859261E-06
 ( 5, 5):  -0.000428613028                0  -0.000390884861
 ( 5, 6):   -0.00023796351                0  -0.000126279107
 ( 6, 1):   4.24837444E-05                0     9.807843E-05
 ( 6, 2):   7.05416183E-05                0    0.00022114459
 ( 6, 3):  -3.16142729E-06                0  -5.18053519E-06
 ( 6, 4):   2.18118018E-05                0   4.35199748E-05
 ( 6, 5):  -4.10123381E-05                0  -0.000126278646
 ( 6, 6):   1.06445412E-05                0  -1.18020124E-05
--------------------------------------------------------------
 DC time:  CPU 9110.59 s  wall 1179.61 s


 CIS/TDDFT memory preview:
 --------------------------
	NOV = NOa*NVa + NOb*NVb = 3087048
	NRoots = 12, max iter = 30, max vectors = 360
	Size of each subspace vector: 23.55 Mb
	Davidson algorithm may add up to 2 x NOV x NRoots (= 565.3 Mb) per iteration
	Max memory = 16957.7 Mb (worst case scenario)
	Currently available memory = 2000.0 Mb

	In case of problems:
	(a) increase memory (MEM_TOTAL = 16958 can hold 360 subspace vectors), or
	(b) request fewer states (CIS_N_ROOTS = 1 will fit in current MEM_TOTAL), or
	(c) reduce MAX_CIS_SUBSPACE (= 42 will fit in current MEM_TOTAL).
	Reducing MAX_CIS_SUBSPACE may hamper convergence.

 CIS energy converged when residual is below 10e- 6
  Skipping CIS/RPA calculation, including relax
  Going directly to Wavefunction Analysis
 No wavefunction analysis requested
 Total job time:  4634.56s(wall), 9149.96s(cpu) 
 Wed Feb 12 04:22:38 2025

        *************************************************************
        *                                                           *
        *  Thank you very much for using Q-Chem.  Have a nice day.  *
        *                                                           *
        *************************************************************


