                  Welcome to Q-Chem
     A Quantum Leap Into The Future Of Chemistry


 Q-Chem 6.1 (devel), Q-Chem, Inc., Pleasanton, CA (2022)

 E. Epifanovsky,  A. T. B. Gilbert,  Xintian Feng,  Joonho Lee,  Yuezhi Mao,  
 N. Mardirossian,  P. Pokhilko,  A. White,  M. Wormit,  M. P. Coons,  
 A. L. Dempwolff,  Zhengting Gan,  D. Hait,  P. R. Horn,  L. D. Jacobson,  
 I. Kaliman,  J. Kussmann,  A. W. Lange,  Ka Un Lao,  D. S. Levine,  Jie Liu,  
 S. C. McKenzie,  A. F. Morrison,  K. Nanda,  F. Plasser,  D. R. Rehn,  
 M. L. Vidal,  Zhi-Qiang You,  Ying Zhu,  B. Alam,  B. Albrecht,  
 A. Aldossary,  E. Alguire,  J. H. Andersen,  V. Athavale,  D. Barton,  
 K. Begam,  A. Behn,  N. Bellonzi,  Y. A. Bernard,  E. J. Berquist,  
 H. Burton,  A. Carreras,  K. Carter-Fenk,  Mathew Chow,  Romit Chakraborty,  
 Chandrima Chakravarty,  Junhan Chen,  A. D. Chien,  K. D. Closser,  
 V. Cofer-Shabica,  L. Cunha,  S. Dasgupta,  Jia Deng,  M. de Wergifosse,  
 M. Diedenhofen,  Hainam Do,  S. Ehlert,  Po-Tung Fang,  S. Fatehi,  
 Qingguo Feng,  T. Friedhoff,  Thomas Froitzheim,  B. Ganoe,  J. Gayvert,  
 Qinghui Ge,  G. Gidofalvi,  M. Goldey,  Montgomery Gray,  J. Gomes,  
 C. Gonzalez-Espinoza,  S. Gulania,  A. Gunina,  J. A. Gyamfi,  
 M. W. D. Hanson-Heine,  P. H. P. Harbach,  A. W. Hauser,  M. F. Herbst,  
 M. Hernandez Vera,  M. Hodecker,  Z. C. Holden,  S. Houck,  Xunkun Huang,  
 Kerwin Hui,  B. C. Huynh,  K. Ikeda,  M. Ivanov,  Hyunjun Ji,  Zuxin Jin,  
 Hanjie Jiang,  Subrata Jana,  B. Kaduk,  S. Kaehler,  R. Kang,  
 K. Khistyaev,  Jaehoon Kim,  Yongbin Kim,  P. Klunzinger,  Z. Koczor-Benda,  
 Joong Hoon Koh,  D. Kosenkov,  Saikiran Kotaru,  L. Koulias,  T. Kowalczyk,  
 C. M. Krauter,  K. Kue,  A. Kunitsa,  T. Kus,  A. Landau,  K. V. Lawler,  
 D. Lefrancois,  S. Lehtola,  Rain Li,  Shaozhi Li,  Yi-Pei Li,  
 Jiashu Liang,  M. Liebenthal,  Hung-Hsuan Lin,  You-Sheng Lin,  Fenglai Liu,  
 Kuan-Yu Liu,  M. Loipersberger,  A. Luenser,  C. Malbon,  A. Manjanath,  
 P. Manohar,  E. Mansoor,  S. F. Manzer,  Shan-Ping Mao,  A. V. Marenich,  
 T. Markovich,  S. Mason,  F. Matz,  S. A. Maurer,  P. F. McLaughlin,  
 M. F. S. J. Menger,  J.-M. Mewes,  S. A. Mewes,  P. Morgante,  
 Mohammad Mostafanejad,  J. W. Mullinax,  K. J. Oosterbaan,  G. Paran,  
 V. Parravicini,  Alexander C. Paul,  Suranjan K. Paul,  F. Pavosevic,  
 Zheng Pei,  S. Prager,  E. I. Proynov,  E. Ramos,  B. Rana,  A. E. Rask,  
 A. Rettig,  R. M. Richard,  F. Rob,  E. Rossomme,  T. Scheele,  M. Scheurer,  
 M. Schneider,  P. E. Schneider,  N. Sergueev,  S. M. Sharada,  
 Hengyuan Shen,  W. Skomorowski,  D. W. Small,  C. J. Stein,  Yingli Su,  
 Yu-Chuan Su,  E. J. Sundstrom,  Zhen Tao,  J. Thirman,  Hung-Yi Tsai,  
 T. Tsuchimochi,  N. M. Tubman,  C. Utku,  S. P. Veccham,  O. Vydrov,  
 J. Wenzel,  Jonathan Wong,  J. Witte,  A. Yamada,  Chou-Hsun Yang,  Kun Yao,  
 S. Yeganeh,  S. R. Yost,  A. Zech,  F. Zeller,  Igor Ying Zhang,  
 Xing Zhang,  Yu Zhang,  D. Zuev,  A. Aspuru-Guzik,  A. T. Bell,  
 N. A. Besley,  K. B. Bravaya,  B. R. Brooks,  D. Casanova,  Jeng-Da Chai,  
 Hsing-Ta Chen,  S. Coriani,  C. J. Cramer,  A. E. DePrince, III,  
 R. A. DiStasio Jr.,  A. Dreuw,  B. D. Dunietz,  T. R. Furlani,  
 W. A. Goddard III,  S. Grimme,  S. Hammes-Schiffer,  T. Head-Gordon,  
 W. J. Hehre,  Chao-Ping Hsu,  T.-C. Jagau,  Yousung Jung,  A. Klamt,  
 Jing Kong,  D. S. Lambrecht,  Xiangyuan Li,  WanZhen Liang,  N. J. Mayhall,  
 C. W. McCurdy,  J. B. Neaton,  T. Neudecker,  C. Ochsenfeld,  
 J. A. Parkhill,  R. Peverati,  V. A. Rassolov,  Haisheng Ren,  Yihan Shao,  
 L. V. Slipchenko,  R. P. Steele,  J. E. Subotnik,  A. J. W. Thom,  
 A. Tkatchenko,  D. G. Truhlar,  T. Van Voorhis,  Fan Wang,  
 T. A. Wesolowski,  K. B. Whaley,  H. L. Woodcock III,  P. M. Zimmerman,  
 S. Faraji,  P. M. W. Gill,  M. Head-Gordon,  J. M. Herbert,  A. I. Krylov

 Contributors to earlier versions of Q-Chem not listed above: 
 R. D. Adamson,  B. Austin,  R. Baer,  J. Baker,  G. J. O. Beran,  
 K. Brandhorst,  S. T. Brown,  E. F. C. Byrd,  Arup K. Chakraborty,  
 G. K. L. Chan,  Chun-Min Chang,  Yunqing Chen,  C.-L. Cheng,  
 Siu Hung Chien,  D. M. Chipman,  D. L. Crittenden,  H. Dachsel,  
 R. J. Doerksen,  A. D. Dutoi,  R. G. Edgar,  J. Fosso-Tande,  
 L. Fusti-Molnar,  D. Ghosh,  A. Ghysels,  A. Golubeva-Zadorozhnaya,  
 J. Gonthier,  M. S. Gordon,  S. R. Gwaltney,  G. Hawkins,  J. E. Herr,  
 A. Heyden,  S. Hirata,  E. G. Hohenstein,  G. Kedziora,  F. J. Keil,  
 C. Kelley,  Jihan Kim,  R. A. King,  R. Z. Khaliullin,  P. P. Korambath,  
 W. Kurlancheek,  A. Laurent,  A. M. Lee,  M. S. Lee,  S. V. Levchenko,  
 Ching Yeh Lin,  D. Liotard,  E. Livshits,  R. C. Lochan,  I. Lotan,  
 L. A. Martinez-Martinez,  P. E. Maslen,  N. Nair,  D. P. O'Neill,  
 D. Neuhauser,  E. Neuscamman,  C. M. Oana,  R. Olivares-Amaya,  R. Olson,  
 T. M. Perrine,  B. Peters,  P. A. Pieniazek,  A. Prociuk,  Y. M. Rhee,  
 J. Ritchie,  M. A. Rohrdanz,  E. Rosta,  N. J. Russ,  H. F. Schaefer III,  
 M. W. Schmidt,  N. E. Schultz,  S. Sharma,  N. Shenvi,  C. D. Sherrill,  
 A. C. Simmonett,  A. Sodt,  T. Stein,  D. Stuck,  K. S. Thanthiriwatte,  
 V. Vanovschi,  L. Vogt,  Tao Wang,  A. Warshel,  M. A. Watson,  
 C. F. Williams,  Q. Wu,  X. Xu,  Jun Yang,  W. Zhang,  Yan Zhao

   Please cite Q-Chem as follows:
  "Software for the frontiers of quantum chemistry:
   An overview of developments in the Q-Chem 5 package"
   J. Chem. Phys. 155, 084801 (2021)
   https://doi.org/10.1063/5.0055522 (open access)

 Q-Chem 6.1.0 for Intel X86 EM64T Linux

 Parts of Q-Chem use Armadillo 9.900.5 (Nocturnal Misbehaviour).
 http://arma.sourceforge.net/

 Q-Chem begins on Wed Feb 12 02:43:58 2025  

 Host: n150.cluster
0

     Scratch files written to /scratch/sanghita/qchem194812//
 Processing $rem in /home/chance/software/ccats2023/config/preferences:
 Processing $rem in /home/sanghita/.qchemrc:

 Checking the input file for inconsistencies... 	...done.

--------------------------------------------------------------
User input:
--------------------------------------------------------------
$molecule
0 1
--
0 1
N   14.0720775   14.4772325   13.2163359
O    9.7109512   18.5476720   16.9529985
O   12.6699426   19.5523330   12.3564035
N   14.1978809   12.5091885   15.1593425
H   13.6499394   13.1366178   14.9463288
N   10.6968001   15.7849540   16.5189328
O   17.7504349   10.6360029   13.6758024
N   12.1814359   15.9435682   14.6317116
H   12.5053443   15.1481361   14.6714205
N   13.1221249   11.7865154   17.1941461
N   12.1227943   13.8442504   16.4446593
O   16.4108133   12.1313491   10.2097075
O   15.1190570   10.0272714   18.5288177
O   11.1290189   10.3657151   18.8545277
O    8.2990082   15.1419389   18.2749697
O   13.5562040   16.9047300    9.6341685
N   13.1459147   16.6060343   12.5358173
N   15.4965237   12.5285272   13.1505830
C   11.0143706   14.5319951   16.8417490
C   14.1170956   11.7921351   16.3321237
C   15.9650751   11.1214508   15.1360316
C   11.0953689   17.8358760   15.1810458
C   14.8723675   13.5645586   12.5930497
C   12.4922182   16.8341150   13.6409164
C   11.8319416   18.0811204   14.0187143
C   10.2214631   13.7490278   17.7741864
C   15.2977586   10.9475056   16.3546309
C   13.7878495   15.4471905   12.3009395
C   11.3070969   16.4441565   15.5508055
C   12.1288558   12.6755315   17.1472027
C   15.7878894   10.0968648   17.3722738
C   11.8793668   19.3617450   13.4496060
C   10.9226761   12.5554385   17.9638892
C   17.1459011   10.4155106   14.8643386
C    8.9442376   19.5584112   17.6118137
H    9.4508233   20.3839259   17.6632585
H    8.1255381   19.7310394   17.1214803
C   10.3528342   18.8531819   15.7951684
C   15.2363235   12.1179618   14.3756128
C   14.3593810   15.1246861   11.0045300
C   15.0539669   13.9171689   11.1762271
C   10.4278783   11.5483961   18.7950447
C   11.1261322   20.3329703   14.0524750
H   11.1215417   21.1866756   13.6859306
C   16.9661325    9.4174721   17.0587819
H   17.3312499    8.8448704   17.6938039
C   15.7139749   13.3261514   10.1105154
C   17.5980982    9.5544504   15.8707280
H   18.3676159    9.0557279   15.7163935
C   10.3763483   20.0885228   15.1826535
H    9.8702941   20.7785556   15.5427672
C   14.3384859   15.7631269    9.7584399
C    8.6321772   19.0697299   18.9670633
H    8.2624313   18.1755258   18.8979343
H    9.4568811   19.0078014   19.4734733
C    9.0115299   13.9744433   18.4301079
C   18.9503624    9.9285128   13.3515393
H   19.5718897    9.9701792   14.0942739
H   18.7477221    8.9961052   13.1746977
C    8.5615626   12.9870674   19.2757322
H    7.7659346   13.1239969   19.7387356
C   10.7456831    9.4004821   19.7917881
H   10.9055579    9.7274130   20.6904649
H    9.7994720    9.2055198   19.7001520
C   15.7161443    9.4532460   19.6551378
H   15.8120791    8.4994678   19.5104492
H   16.6046296    9.8276419   19.7676734
C    9.2425547   11.8006900   19.4622197
H    8.8995913   11.1624303   20.0457969
C   15.7371172   13.9977373    8.9128156
H   16.2209588   13.6411817    8.2022340
C   15.0565071   15.1953969    8.7359741
H   15.0882829   15.6210433    7.9096416
C   11.5619574    8.1528774   19.5377793
H   12.5043098    8.3841001   19.5056263
H   11.3162087    7.7750646   18.6776862
C   13.1587044   20.8344929   12.0573805
H   12.4076280   21.4172194   11.8660700
H   13.6124249   21.1860035   12.8386987
C   14.0485738   20.8689550   10.9657856
H   13.6168669   20.3965673   10.2359122
H   14.8240276   20.3434580   11.2165791
C    7.6674238   19.9281068   19.7290897
H    6.8486296   20.0094367   19.2146415
H    8.0457399   20.8148554   19.8223335
C   14.9650728    9.6661315   20.8608758
H   14.0426834    9.4279437   20.6759960
H   14.9800813   10.6185596   21.0489710
C    6.5831864   16.3007567   17.1086190
H    7.0632746   17.1373790   17.0218059
H    6.1201459   16.1594752   16.2678177
C   15.6267041   10.9876648   10.4400838
H   14.7328058   11.1713958   10.1105154
H   15.5578977   10.8648484   11.3998513
C   12.2346021   18.4933919    8.5301948
H   12.3991602   19.0594225    9.3002595
H   11.4025321   18.0184458    8.6893522
C   11.3324346    7.1381324   20.6132976
H   10.3858331    6.9355137   20.6534889
H   11.5874296    7.5230023   21.4653525
C   13.3497586   17.4870061    8.4273051
H   14.1617389   17.9288152    8.1331050
H   13.1190623   16.8089684    7.7713836
C   15.3510178    8.9895681   22.0601833
H   15.2307208    8.0388870   21.9122794
H   16.2998699    9.1391348   22.1904030
C   20.7262645   10.0357673   11.6361760
H   21.3901812   10.0388088   12.3435423
H   20.5674991    9.1104399   11.3950284
C   15.4689195    8.5757414   10.1908980
H   14.6112143    8.5534716    9.7391481
H   15.2768533    8.5751951   11.1426272
C   12.0829851    5.8709485   20.4187719
H   11.8791032    5.2653169   21.1357841
H   11.8295242    5.4733359   19.5827935
H   13.0251303    6.0559573   20.4139489
C   12.0693240   19.3428850    7.3485715
H   11.8390644   18.7693987    6.6026215
H   12.9319963   19.7392755    7.1492228
C   19.5528736   10.5502129   12.1522319
H   19.7093214   11.4844120   12.3564035
H   18.8886234   10.5224830   11.4448655
C   14.6614194    9.3375091   23.3286197
H   15.0088477    8.7948156   24.0408090
H   14.8113782   10.2638327   23.5295761
H   13.7189659    9.1785619   23.2337683
C    7.5527856   15.2880186   17.2066857
H    8.1550812   15.4029118   16.4559129
H    7.0928610   14.4446305   17.0684278
C   16.0262801    9.8303456    9.9079514
H   15.9623692    9.9403089    8.9465763
H   16.9727204    9.7545513   10.1105154
C   11.1206074   20.3871893    7.3935857
H   11.1446390   20.8764371    6.5688609
H   10.2432576   20.0172803    7.5205901
H   11.3280117   20.9770242    8.1218515
C   21.3083710   10.7266657   10.4561603
H   22.1006944   10.2640489   10.1732138
H   20.6691154   10.7306814    9.7407558
H   21.5324041   11.6307558   10.6908773
C    7.3328736   19.3970613   21.0891623
H    6.7146047   19.9920334   21.5216203
H    6.9345570   18.5284529   21.0055644
H    8.1344700   19.3338715   21.6132564
C   14.5263882   22.0774159   10.4416915
H   13.7586074   22.5934452   10.1523143
H   14.9380491   22.5671254   11.1699573
C   15.5040661   22.0465294    9.3082977
H   15.7196571   22.9447873    9.0478583
H   16.3037028   21.5946549    9.5880289
H   15.1165550   21.5805353    8.5639554
C    5.5565906   16.5132914   18.1182237
H    5.0851084   15.6754736   18.2532664
H    5.9936888   16.7367130   18.9542021
C    4.5198059   17.6033945   17.8095548
H    3.9077376   17.6809213   18.5442511
H    4.9675882   18.4417210   17.6761198
H    4.0372176   17.3707472   17.0137677
C   16.0664960    7.3789297    9.9240279
H   15.4648420    6.6645972   10.1458837
H   16.2879840    7.3334613    8.9915905
H   16.8669951    7.2979093   10.4481221
--
0 1
N   12.3370286  -18.0173200   18.9366787
O   16.6981549  -22.0877595   15.2000161
O   13.7391635  -23.0924205   19.7966111
N   12.2112252  -16.0492760   16.9936720
H   12.7591667  -16.6767054   17.2066857
N   15.7123060  -19.3250415   15.6340818
O    8.6586712  -14.1760904   18.4772121
N   14.2276702  -19.4836557   17.5213030
H   13.9037617  -18.6882236   17.4815940
N   13.2869812  -15.3266029   14.9588685
N   14.2863118  -17.3843379   15.7083553
O    9.9982928  -15.6714366   21.9433071
O   11.2900491  -13.5673589   13.6241969
O   15.2800872  -13.9058026   13.2984868
O   18.1100979  -18.6820264   13.8780449
O   12.8529021  -20.4448175   22.5188460
N   13.2631914  -20.1461218   19.6171972
N   10.9125824  -16.0686147   19.0024316
C   15.3947355  -18.0720826   15.3112655
C   12.2920104  -15.3322226   15.8208908
C   10.4440309  -14.6615383   17.0169830
C   15.3137372  -21.3759635   16.9719687
C   11.5367386  -17.1046461   19.5599649
C   13.9168878  -20.3742025   18.5120981
C   14.5771645  -21.6212080   18.1343002
C   16.1876430  -17.2891153   14.3788281
C   11.1113475  -14.4875931   15.7983837
C   12.6212566  -18.9872780   19.8520750
C   15.1020091  -19.9842440   16.6022091
C   14.2802503  -16.2156190   15.0058119
C   10.6212167  -13.6369523   14.7807408
C   14.5297393  -22.9018325   18.7034086
C   15.4864300  -16.0955260   14.1891253
C    9.2632049  -13.9555981   17.2886759
C   17.4648684  -23.0984987   14.5412008
H   16.9582827  -23.9240134   14.4897560
H   18.2835680  -23.2711269   15.0315343
C   16.0562719  -22.3932694   16.3578462
C   11.1727826  -15.6580493   17.7774018
C   12.0497251  -18.6647736   21.1484846
C   11.3551392  -17.4572564   20.9767875
C   15.9812278  -15.0884836   13.3579699
C   15.2829739  -23.8730578   18.1005395
H   15.2875644  -24.7267631   18.4670839
C    9.4429736  -12.9575596   15.0942327
H    9.0778562  -12.3849580   14.4592106
C   10.6951312  -16.8662390   22.0424991
C    8.8110079  -13.0945379   16.2822866
H    8.0414902  -12.5958154   16.4366210
C   16.0327578  -23.6286103   16.9703611
H   16.5388119  -24.3186431   16.6102473
C   12.0706202  -19.3032145   22.3945746
C   17.7769289  -22.6098174   13.1859513
H   18.1466748  -21.7156133   13.2550803
H   16.9522250  -22.5478889   12.6795413
C   17.3975762  -17.5145309   13.7229066
C    7.4587437  -13.4686003   18.8014753
H    6.8372163  -13.5102667   18.0587406
H    7.6613840  -12.5361927   18.9783168
C   17.8475435  -16.5271549   12.8772823
H   18.6431715  -16.6640844   12.4142789
C   15.6634230  -12.9405697   12.3612264
H   15.5035481  -13.2675005   11.4625497
H   16.6096341  -12.7456074   12.4528625
C   10.6929618  -12.9933335   12.4978768
H   10.5970270  -12.0395553   12.6425653
H    9.8044765  -13.3677294   12.3853412
C   17.1665514  -15.3407775   12.6907948
H   17.5095147  -14.7025178   12.1072176
C   10.6719889  -17.5378248   23.2401989
H   10.1881473  -17.1812692   23.9507805
C   11.3525989  -18.7354844   23.4170405
H   11.3208231  -19.1611308   24.2433730
C   14.8471487  -11.6929649   12.6152353
H   13.9047963  -11.9241876   12.6473883
H   15.0928974  -11.3151521   13.4753284
C   13.2504017  -24.3745804   20.0956341
H   14.0014781  -24.9573069   20.2869445
H   12.7966812  -24.7260910   19.3143158
C   12.3605323  -24.4090425   21.1872289
H   12.7922391  -23.9366549   21.9171024
H   11.5850785  -23.8835455   20.9364354
C   18.7416823  -23.4681943   12.4239248
H   19.5604765  -23.5495242   12.9383731
H   18.3633662  -24.3549429   12.3306811
C   11.4440333  -13.2062190   11.2921387
H   12.3664227  -12.9680312   11.4770185
H   11.4290248  -14.1586471   11.1040436
C   19.8259197  -19.8408442   15.0443955
H   19.3458315  -20.6774665   15.1312087
H   20.2889602  -19.6995627   15.8851968
C   10.7824020  -14.5277523   21.7129307
H   11.6763003  -14.7114833   22.0424991
H   10.8512084  -14.4049359   20.7531632
C   14.1745040  -22.0334794   23.6228198
H   14.0099459  -22.5995101   22.8527551
H   15.0065740  -21.5585333   23.4636624
C   15.0766715  -10.6782199   11.5397169
H   16.0232730  -10.4756012   11.4995257
H   14.8216764  -11.0630898   10.6876620
C   13.0593475  -21.0270936   23.7257094
H   12.2473672  -21.4689027   24.0199095
H   13.2900438  -20.3490559   24.3816309
C   11.0580882  -12.5296556   10.0928313
H   11.1783853  -11.5789745   10.2407351
H   10.1092361  -12.6792223    9.9626116
C    5.6828416  -13.5758549   20.5168386
H    5.0189248  -13.5788963   19.8094723
H    5.8416070  -12.6505274   20.7579862
C   10.9401866  -12.1158290   21.9621166
H   11.7978918  -12.0935591   22.4138665
H   11.1322528  -12.1152826   21.0103874
C   14.3261210   -9.4110360   11.7342427
H   14.5300029   -8.8054044   11.0172304
H   14.5795819   -9.0134234   12.5702210
H   13.3839758   -9.5960448   11.7390656
C   14.3397821  -22.8829725   24.8044431
H   14.5700417  -22.3094862   25.5503930
H   13.4771098  -23.2793630   25.0037918
C    6.8562325  -14.0903004   20.0007827
H    6.6997847  -15.0244995   19.7966111
H    7.5204827  -14.0625705   20.7081490
C   11.7476866  -12.8775966    8.8243948
H   11.4002584  -12.3349031    8.1122056
H   11.5977278  -13.8039202    8.6234385
H   12.6901402  -12.7186494    8.9192462
C   18.8563205  -18.8281061   14.9463288
H   18.2540249  -18.9429993   15.6971017
H   19.3162451  -17.9847180   15.0845868
C   10.3828260  -13.3704331   22.2450631
H   10.4467369  -13.4803964   23.2064383
H    9.4363857  -13.2946388   22.0424991
C   15.2884987  -23.9272768   24.7594289
H   15.2644671  -24.4165246   25.5841537
H   16.1658484  -23.5573678   24.6324245
H   15.0810944  -24.5171117   24.0311631
C    5.1007351  -14.2667532   21.6968542
H    4.3084117  -13.8041364   21.9798008
H    5.7399907  -14.2707689   22.4122588
H    4.8767020  -15.1708433   21.4621372
C   19.0762325  -22.9371488   11.0638523
H   19.6945014  -23.5321209   10.6313943
H   19.4745491  -22.0685404   11.1474501
H   18.2746361  -22.8739590   10.5397582
C   11.8827179  -25.6175034   21.7113231
H   12.6504987  -26.1335327   22.0007002
H   11.4710570  -26.1072129   20.9830573
C   10.9050400  -25.5866169   22.8447168
H   10.6894490  -26.4848748   23.1051563
H   10.1054033  -25.1347424   22.5649856
H   11.2925511  -25.1206229   23.5890591
C   20.8525154  -20.0533789   14.0347909
H   21.3239977  -19.2155612   13.8997482
H   20.4154173  -20.2768005   13.1988125
C   21.8893002  -21.1434820   14.3434598
H   22.5013685  -21.2210088   13.6087634
H   21.4415179  -21.9818085   14.4768948
H   22.3718884  -20.9108347   15.1392469
C   10.3426101  -10.9190172   22.2289866
H   10.9442641  -10.2046847   22.0071308
H   10.1211221  -10.8735488   23.1614240
H    9.5421109  -10.8379968   21.7048925
$end
$rem
jobtype sp
method PBE 
basis 6-31G**
scf_guess fragmo
sym_ignore true
scf_print_frgm true
sts_dc trans
sts_trans_donor 1-6 
sts_trans_acceptor 1-6 
cis_n_roots 12
cis_singlets 1
cis_triplets 0
sts_dc_bsse 0
rpa 2
$end
--------------------------------------------------------------
 ----------------------------------------------------------------
             Standard Nuclear Orientation (Angstroms)
    I     Atom           X                Y                Z
 ----------------------------------------------------------------
    1      N      14.0720775000    14.4772325000    13.2163359000
    2      O       9.7109512000    18.5476720000    16.9529985000
    3      O      12.6699426000    19.5523330000    12.3564035000
    4      N      14.1978809000    12.5091885000    15.1593425000
    5      H      13.6499394000    13.1366178000    14.9463288000
    6      N      10.6968001000    15.7849540000    16.5189328000
    7      O      17.7504349000    10.6360029000    13.6758024000
    8      N      12.1814359000    15.9435682000    14.6317116000
    9      H      12.5053443000    15.1481361000    14.6714205000
   10      N      13.1221249000    11.7865154000    17.1941461000
   11      N      12.1227943000    13.8442504000    16.4446593000
   12      O      16.4108133000    12.1313491000    10.2097075000
   13      O      15.1190570000    10.0272714000    18.5288177000
   14      O      11.1290189000    10.3657151000    18.8545277000
   15      O       8.2990082000    15.1419389000    18.2749697000
   16      O      13.5562040000    16.9047300000     9.6341685000
   17      N      13.1459147000    16.6060343000    12.5358173000
   18      N      15.4965237000    12.5285272000    13.1505830000
   19      C      11.0143706000    14.5319951000    16.8417490000
   20      C      14.1170956000    11.7921351000    16.3321237000
   21      C      15.9650751000    11.1214508000    15.1360316000
   22      C      11.0953689000    17.8358760000    15.1810458000
   23      C      14.8723675000    13.5645586000    12.5930497000
   24      C      12.4922182000    16.8341150000    13.6409164000
   25      C      11.8319416000    18.0811204000    14.0187143000
   26      C      10.2214631000    13.7490278000    17.7741864000
   27      C      15.2977586000    10.9475056000    16.3546309000
   28      C      13.7878495000    15.4471905000    12.3009395000
   29      C      11.3070969000    16.4441565000    15.5508055000
   30      C      12.1288558000    12.6755315000    17.1472027000
   31      C      15.7878894000    10.0968648000    17.3722738000
   32      C      11.8793668000    19.3617450000    13.4496060000
   33      C      10.9226761000    12.5554385000    17.9638892000
   34      C      17.1459011000    10.4155106000    14.8643386000
   35      C       8.9442376000    19.5584112000    17.6118137000
   36      H       9.4508233000    20.3839259000    17.6632585000
   37      H       8.1255381000    19.7310394000    17.1214803000
   38      C      10.3528342000    18.8531819000    15.7951684000
   39      C      15.2363235000    12.1179618000    14.3756128000
   40      C      14.3593810000    15.1246861000    11.0045300000
   41      C      15.0539669000    13.9171689000    11.1762271000
   42      C      10.4278783000    11.5483961000    18.7950447000
   43      C      11.1261322000    20.3329703000    14.0524750000
   44      H      11.1215417000    21.1866756000    13.6859306000
   45      C      16.9661325000     9.4174721000    17.0587819000
   46      H      17.3312499000     8.8448704000    17.6938039000
   47      C      15.7139749000    13.3261514000    10.1105154000
   48      C      17.5980982000     9.5544504000    15.8707280000
   49      H      18.3676159000     9.0557279000    15.7163935000
   50      C      10.3763483000    20.0885228000    15.1826535000
   51      H       9.8702941000    20.7785556000    15.5427672000
   52      C      14.3384859000    15.7631269000     9.7584399000
   53      C       8.6321772000    19.0697299000    18.9670633000
   54      H       8.2624313000    18.1755258000    18.8979343000
   55      H       9.4568811000    19.0078014000    19.4734733000
   56      C       9.0115299000    13.9744433000    18.4301079000
   57      C      18.9503624000     9.9285128000    13.3515393000
   58      H      19.5718897000     9.9701792000    14.0942739000
   59      H      18.7477221000     8.9961052000    13.1746977000
   60      C       8.5615626000    12.9870674000    19.2757322000
   61      H       7.7659346000    13.1239969000    19.7387356000
   62      C      10.7456831000     9.4004821000    19.7917881000
   63      H      10.9055579000     9.7274130000    20.6904649000
   64      H       9.7994720000     9.2055198000    19.7001520000
   65      C      15.7161443000     9.4532460000    19.6551378000
   66      H      15.8120791000     8.4994678000    19.5104492000
   67      H      16.6046296000     9.8276419000    19.7676734000
   68      C       9.2425547000    11.8006900000    19.4622197000
   69      H       8.8995913000    11.1624303000    20.0457969000
   70      C      15.7371172000    13.9977373000     8.9128156000
   71      H      16.2209588000    13.6411817000     8.2022340000
   72      C      15.0565071000    15.1953969000     8.7359741000
   73      H      15.0882829000    15.6210433000     7.9096416000
   74      C      11.5619574000     8.1528774000    19.5377793000
   75      H      12.5043098000     8.3841001000    19.5056263000
   76      H      11.3162087000     7.7750646000    18.6776862000
   77      C      13.1587044000    20.8344929000    12.0573805000
   78      H      12.4076280000    21.4172194000    11.8660700000
   79      H      13.6124249000    21.1860035000    12.8386987000
   80      C      14.0485738000    20.8689550000    10.9657856000
   81      H      13.6168669000    20.3965673000    10.2359122000
   82      H      14.8240276000    20.3434580000    11.2165791000
   83      C       7.6674238000    19.9281068000    19.7290897000
   84      H       6.8486296000    20.0094367000    19.2146415000
   85      H       8.0457399000    20.8148554000    19.8223335000
   86      C      14.9650728000     9.6661315000    20.8608758000
   87      H      14.0426834000     9.4279437000    20.6759960000
   88      H      14.9800813000    10.6185596000    21.0489710000
   89      C       6.5831864000    16.3007567000    17.1086190000
   90      H       7.0632746000    17.1373790000    17.0218059000
   91      H       6.1201459000    16.1594752000    16.2678177000
   92      C      15.6267041000    10.9876648000    10.4400838000
   93      H      14.7328058000    11.1713958000    10.1105154000
   94      H      15.5578977000    10.8648484000    11.3998513000
   95      C      12.2346021000    18.4933919000     8.5301948000
   96      H      12.3991602000    19.0594225000     9.3002595000
   97      H      11.4025321000    18.0184458000     8.6893522000
   98      C      11.3324346000     7.1381324000    20.6132976000
   99      H      10.3858331000     6.9355137000    20.6534889000
  100      H      11.5874296000     7.5230023000    21.4653525000
  101      C      13.3497586000    17.4870061000     8.4273051000
  102      H      14.1617389000    17.9288152000     8.1331050000
  103      H      13.1190623000    16.8089684000     7.7713836000
  104      C      15.3510178000     8.9895681000    22.0601833000
  105      H      15.2307208000     8.0388870000    21.9122794000
  106      H      16.2998699000     9.1391348000    22.1904030000
  107      C      20.7262645000    10.0357673000    11.6361760000
  108      H      21.3901812000    10.0388088000    12.3435423000
  109      H      20.5674991000     9.1104399000    11.3950284000
  110      C      15.4689195000     8.5757414000    10.1908980000
  111      H      14.6112143000     8.5534716000     9.7391481000
  112      H      15.2768533000     8.5751951000    11.1426272000
  113      C      12.0829851000     5.8709485000    20.4187719000
  114      H      11.8791032000     5.2653169000    21.1357841000
  115      H      11.8295242000     5.4733359000    19.5827935000
  116      H      13.0251303000     6.0559573000    20.4139489000
  117      C      12.0693240000    19.3428850000     7.3485715000
  118      H      11.8390644000    18.7693987000     6.6026215000
  119      H      12.9319963000    19.7392755000     7.1492228000
  120      C      19.5528736000    10.5502129000    12.1522319000
  121      H      19.7093214000    11.4844120000    12.3564035000
  122      H      18.8886234000    10.5224830000    11.4448655000
  123      C      14.6614194000     9.3375091000    23.3286197000
  124      H      15.0088477000     8.7948156000    24.0408090000
  125      H      14.8113782000    10.2638327000    23.5295761000
  126      H      13.7189659000     9.1785619000    23.2337683000
  127      C       7.5527856000    15.2880186000    17.2066857000
  128      H       8.1550812000    15.4029118000    16.4559129000
  129      H       7.0928610000    14.4446305000    17.0684278000
  130      C      16.0262801000     9.8303456000     9.9079514000
  131      H      15.9623692000     9.9403089000     8.9465763000
  132      H      16.9727204000     9.7545513000    10.1105154000
  133      C      11.1206074000    20.3871893000     7.3935857000
  134      H      11.1446390000    20.8764371000     6.5688609000
  135      H      10.2432576000    20.0172803000     7.5205901000
  136      H      11.3280117000    20.9770242000     8.1218515000
  137      C      21.3083710000    10.7266657000    10.4561603000
  138      H      22.1006944000    10.2640489000    10.1732138000
  139      H      20.6691154000    10.7306814000     9.7407558000
  140      H      21.5324041000    11.6307558000    10.6908773000
  141      C       7.3328736000    19.3970613000    21.0891623000
  142      H       6.7146047000    19.9920334000    21.5216203000
  143      H       6.9345570000    18.5284529000    21.0055644000
  144      H       8.1344700000    19.3338715000    21.6132564000
  145      C      14.5263882000    22.0774159000    10.4416915000
  146      H      13.7586074000    22.5934452000    10.1523143000
  147      H      14.9380491000    22.5671254000    11.1699573000
  148      C      15.5040661000    22.0465294000     9.3082977000
  149      H      15.7196571000    22.9447873000     9.0478583000
  150      H      16.3037028000    21.5946549000     9.5880289000
  151      H      15.1165550000    21.5805353000     8.5639554000
  152      C       5.5565906000    16.5132914000    18.1182237000
  153      H       5.0851084000    15.6754736000    18.2532664000
  154      H       5.9936888000    16.7367130000    18.9542021000
  155      C       4.5198059000    17.6033945000    17.8095548000
  156      H       3.9077376000    17.6809213000    18.5442511000
  157      H       4.9675882000    18.4417210000    17.6761198000
  158      H       4.0372176000    17.3707472000    17.0137677000
  159      C      16.0664960000     7.3789297000     9.9240279000
  160      H      15.4648420000     6.6645972000    10.1458837000
  161      H      16.2879840000     7.3334613000     8.9915905000
  162      H      16.8669951000     7.2979093000    10.4481221000
  163      N      12.3370286000   -18.0173200000    18.9366787000
  164      O      16.6981549000   -22.0877595000    15.2000161000
  165      O      13.7391635000   -23.0924205000    19.7966111000
  166      N      12.2112252000   -16.0492760000    16.9936720000
  167      H      12.7591667000   -16.6767054000    17.2066857000
  168      N      15.7123060000   -19.3250415000    15.6340818000
  169      O       8.6586712000   -14.1760904000    18.4772121000
  170      N      14.2276702000   -19.4836557000    17.5213030000
  171      H      13.9037617000   -18.6882236000    17.4815940000
  172      N      13.2869812000   -15.3266029000    14.9588685000
  173      N      14.2863118000   -17.3843379000    15.7083553000
  174      O       9.9982928000   -15.6714366000    21.9433071000
  175      O      11.2900491000   -13.5673589000    13.6241969000
  176      O      15.2800872000   -13.9058026000    13.2984868000
  177      O      18.1100979000   -18.6820264000    13.8780449000
  178      O      12.8529021000   -20.4448175000    22.5188460000
  179      N      13.2631914000   -20.1461218000    19.6171972000
  180      N      10.9125824000   -16.0686147000    19.0024316000
  181      C      15.3947355000   -18.0720826000    15.3112655000
  182      C      12.2920104000   -15.3322226000    15.8208908000
  183      C      10.4440309000   -14.6615383000    17.0169830000
  184      C      15.3137372000   -21.3759635000    16.9719687000
  185      C      11.5367386000   -17.1046461000    19.5599649000
  186      C      13.9168878000   -20.3742025000    18.5120981000
  187      C      14.5771645000   -21.6212080000    18.1343002000
  188      C      16.1876430000   -17.2891153000    14.3788281000
  189      C      11.1113475000   -14.4875931000    15.7983837000
  190      C      12.6212566000   -18.9872780000    19.8520750000
  191      C      15.1020091000   -19.9842440000    16.6022091000
  192      C      14.2802503000   -16.2156190000    15.0058119000
  193      C      10.6212167000   -13.6369523000    14.7807408000
  194      C      14.5297393000   -22.9018325000    18.7034086000
  195      C      15.4864300000   -16.0955260000    14.1891253000
  196      C       9.2632049000   -13.9555981000    17.2886759000
  197      C      17.4648684000   -23.0984987000    14.5412008000
  198      H      16.9582827000   -23.9240134000    14.4897560000
  199      H      18.2835680000   -23.2711269000    15.0315343000
  200      C      16.0562719000   -22.3932694000    16.3578462000
  201      C      11.1727826000   -15.6580493000    17.7774018000
  202      C      12.0497251000   -18.6647736000    21.1484846000
  203      C      11.3551392000   -17.4572564000    20.9767875000
  204      C      15.9812278000   -15.0884836000    13.3579699000
  205      C      15.2829739000   -23.8730578000    18.1005395000
  206      H      15.2875644000   -24.7267631000    18.4670839000
  207      C       9.4429736000   -12.9575596000    15.0942327000
  208      H       9.0778562000   -12.3849580000    14.4592106000
  209      C      10.6951312000   -16.8662390000    22.0424991000
  210      C       8.8110079000   -13.0945379000    16.2822866000
  211      H       8.0414902000   -12.5958154000    16.4366210000
  212      C      16.0327578000   -23.6286103000    16.9703611000
  213      H      16.5388119000   -24.3186431000    16.6102473000
  214      C      12.0706202000   -19.3032145000    22.3945746000
  215      C      17.7769289000   -22.6098174000    13.1859513000
  216      H      18.1466748000   -21.7156133000    13.2550803000
  217      H      16.9522250000   -22.5478889000    12.6795413000
  218      C      17.3975762000   -17.5145309000    13.7229066000
  219      C       7.4587437000   -13.4686003000    18.8014753000
  220      H       6.8372163000   -13.5102667000    18.0587406000
  221      H       7.6613840000   -12.5361927000    18.9783168000
  222      C      17.8475435000   -16.5271549000    12.8772823000
  223      H      18.6431715000   -16.6640844000    12.4142789000
  224      C      15.6634230000   -12.9405697000    12.3612264000
  225      H      15.5035481000   -13.2675005000    11.4625497000
  226      H      16.6096341000   -12.7456074000    12.4528625000
  227      C      10.6929618000   -12.9933335000    12.4978768000
  228      H      10.5970270000   -12.0395553000    12.6425653000
  229      H       9.8044765000   -13.3677294000    12.3853412000
  230      C      17.1665514000   -15.3407775000    12.6907948000
  231      H      17.5095147000   -14.7025178000    12.1072176000
  232      C      10.6719889000   -17.5378248000    23.2401989000
  233      H      10.1881473000   -17.1812692000    23.9507805000
  234      C      11.3525989000   -18.7354844000    23.4170405000
  235      H      11.3208231000   -19.1611308000    24.2433730000
  236      C      14.8471487000   -11.6929649000    12.6152353000
  237      H      13.9047963000   -11.9241876000    12.6473883000
  238      H      15.0928974000   -11.3151521000    13.4753284000
  239      C      13.2504017000   -24.3745804000    20.0956341000
  240      H      14.0014781000   -24.9573069000    20.2869445000
  241      H      12.7966812000   -24.7260910000    19.3143158000
  242      C      12.3605323000   -24.4090425000    21.1872289000
  243      H      12.7922391000   -23.9366549000    21.9171024000
  244      H      11.5850785000   -23.8835455000    20.9364354000
  245      C      18.7416823000   -23.4681943000    12.4239248000
  246      H      19.5604765000   -23.5495242000    12.9383731000
  247      H      18.3633662000   -24.3549429000    12.3306811000
  248      C      11.4440333000   -13.2062190000    11.2921387000
  249      H      12.3664227000   -12.9680312000    11.4770185000
  250      H      11.4290248000   -14.1586471000    11.1040436000
  251      C      19.8259197000   -19.8408442000    15.0443955000
  252      H      19.3458315000   -20.6774665000    15.1312087000
  253      H      20.2889602000   -19.6995627000    15.8851968000
  254      C      10.7824020000   -14.5277523000    21.7129307000
  255      H      11.6763003000   -14.7114833000    22.0424991000
  256      H      10.8512084000   -14.4049359000    20.7531632000
  257      C      14.1745040000   -22.0334794000    23.6228198000
  258      H      14.0099459000   -22.5995101000    22.8527551000
  259      H      15.0065740000   -21.5585333000    23.4636624000
  260      C      15.0766715000   -10.6782199000    11.5397169000
  261      H      16.0232730000   -10.4756012000    11.4995257000
  262      H      14.8216764000   -11.0630898000    10.6876620000
  263      C      13.0593475000   -21.0270936000    23.7257094000
  264      H      12.2473672000   -21.4689027000    24.0199095000
  265      H      13.2900438000   -20.3490559000    24.3816309000
  266      C      11.0580882000   -12.5296556000    10.0928313000
  267      H      11.1783853000   -11.5789745000    10.2407351000
  268      H      10.1092361000   -12.6792223000     9.9626116000
  269      C       5.6828416000   -13.5758549000    20.5168386000
  270      H       5.0189248000   -13.5788963000    19.8094723000
  271      H       5.8416070000   -12.6505274000    20.7579862000
  272      C      10.9401866000   -12.1158290000    21.9621166000
  273      H      11.7978918000   -12.0935591000    22.4138665000
  274      H      11.1322528000   -12.1152826000    21.0103874000
  275      C      14.3261210000    -9.4110360000    11.7342427000
  276      H      14.5300029000    -8.8054044000    11.0172304000
  277      H      14.5795819000    -9.0134234000    12.5702210000
  278      H      13.3839758000    -9.5960448000    11.7390656000
  279      C      14.3397821000   -22.8829725000    24.8044431000
  280      H      14.5700417000   -22.3094862000    25.5503930000
  281      H      13.4771098000   -23.2793630000    25.0037918000
  282      C       6.8562325000   -14.0903004000    20.0007827000
  283      H       6.6997847000   -15.0244995000    19.7966111000
  284      H       7.5204827000   -14.0625705000    20.7081490000
  285      C      11.7476866000   -12.8775966000     8.8243948000
  286      H      11.4002584000   -12.3349031000     8.1122056000
  287      H      11.5977278000   -13.8039202000     8.6234385000
  288      H      12.6901402000   -12.7186494000     8.9192462000
  289      C      18.8563205000   -18.8281061000    14.9463288000
  290      H      18.2540249000   -18.9429993000    15.6971017000
  291      H      19.3162451000   -17.9847180000    15.0845868000
  292      C      10.3828260000   -13.3704331000    22.2450631000
  293      H      10.4467369000   -13.4803964000    23.2064383000
  294      H       9.4363857000   -13.2946388000    22.0424991000
  295      C      15.2884987000   -23.9272768000    24.7594289000
  296      H      15.2644671000   -24.4165246000    25.5841537000
  297      H      16.1658484000   -23.5573678000    24.6324245000
  298      H      15.0810944000   -24.5171117000    24.0311631000
  299      C       5.1007351000   -14.2667532000    21.6968542000
  300      H       4.3084117000   -13.8041364000    21.9798008000
  301      H       5.7399907000   -14.2707689000    22.4122588000
  302      H       4.8767020000   -15.1708433000    21.4621372000
  303      C      19.0762325000   -22.9371488000    11.0638523000
  304      H      19.6945014000   -23.5321209000    10.6313943000
  305      H      19.4745491000   -22.0685404000    11.1474501000
  306      H      18.2746361000   -22.8739590000    10.5397582000
  307      C      11.8827179000   -25.6175034000    21.7113231000
  308      H      12.6504987000   -26.1335327000    22.0007002000
  309      H      11.4710570000   -26.1072129000    20.9830573000
  310      C      10.9050400000   -25.5866169000    22.8447168000
  311      H      10.6894490000   -26.4848748000    23.1051563000
  312      H      10.1054033000   -25.1347424000    22.5649856000
  313      H      11.2925511000   -25.1206229000    23.5890591000
  314      C      20.8525154000   -20.0533789000    14.0347909000
  315      H      21.3239977000   -19.2155612000    13.8997482000
  316      H      20.4154173000   -20.2768005000    13.1988125000
  317      C      21.8893002000   -21.1434820000    14.3434598000
  318      H      22.5013685000   -21.2210088000    13.6087634000
  319      H      21.4415179000   -21.9818085000    14.4768948000
  320      H      22.3718884000   -20.9108347000    15.1392469000
  321      C      10.3426101000   -10.9190172000    22.2289866000
  322      H      10.9442641000   -10.2046847000    22.0071308000
  323      H      10.1211221000   -10.8735488000    23.1614240000
  324      H       9.5421109000   -10.8379968000    21.7048925000
 ----------------------------------------------------------------
 Nuclear Repulsion Energy =       33707.86993697 hartrees
 There are      586 alpha and      586 beta electrons
 Requested basis set is 6-31G(d,p)
 There are 1132 shells and 3220 basis functions

 Total QAlloc Memory Limit   2000 MB
 Mega-Array Size       188 MB
 MEM_STATIC part       192 MB

 A cutoff of  1.0D-12 yielded  70332 shell pairs
 There are    620080 function pairs
 Smallest overlap matrix eigenvalue = 1.72E-04

 Scale SEOQF with 1.000000e-03/1.000000e-03/1.000000e-03

 Standard Electronic Orientation quadrupole field applied
 Nucleus-field energy     =    -0.0000000397 hartrees
 Can only be proccessed by the old fragmo guess code
 Guess MOs from converged MOs on fragments

QCSCRATCH   is /scratch/sanghita
QCFILEPREF  is /scratch/sanghita/qchem194812/

-----------------------------------------------------------------
 SCF on fragment 1 out of 2 in state 1
-----------------------------------------------------------------

/home/chance/software/ccats2023/exe/qcprog.exe /scratch/sanghita/qchem194812/Frg1s1.input /scratch/sanghita/qchem194812/Frg1s1/
                  Welcome to Q-Chem
     A Quantum Leap Into The Future Of Chemistry


 Q-Chem 6.1 (devel), Q-Chem, Inc., Pleasanton, CA (2022)

 E. Epifanovsky,  A. T. B. Gilbert,  Xintian Feng,  Joonho Lee,  Yuezhi Mao,  
 N. Mardirossian,  P. Pokhilko,  A. White,  M. Wormit,  M. P. Coons,  
 A. L. Dempwolff,  Zhengting Gan,  D. Hait,  P. R. Horn,  L. D. Jacobson,  
 I. Kaliman,  J. Kussmann,  A. W. Lange,  Ka Un Lao,  D. S. Levine,  Jie Liu,  
 S. C. McKenzie,  A. F. Morrison,  K. Nanda,  F. Plasser,  D. R. Rehn,  
 M. L. Vidal,  Zhi-Qiang You,  Ying Zhu,  B. Alam,  B. Albrecht,  
 A. Aldossary,  E. Alguire,  J. H. Andersen,  V. Athavale,  D. Barton,  
 K. Begam,  A. Behn,  N. Bellonzi,  Y. A. Bernard,  E. J. Berquist,  
 H. Burton,  A. Carreras,  K. Carter-Fenk,  Mathew Chow,  Romit Chakraborty,  
 Chandrima Chakravarty,  Junhan Chen,  A. D. Chien,  K. D. Closser,  
 V. Cofer-Shabica,  L. Cunha,  S. Dasgupta,  Jia Deng,  M. de Wergifosse,  
 M. Diedenhofen,  Hainam Do,  S. Ehlert,  Po-Tung Fang,  S. Fatehi,  
 Qingguo Feng,  T. Friedhoff,  Thomas Froitzheim,  B. Ganoe,  J. Gayvert,  
 Qinghui Ge,  G. Gidofalvi,  M. Goldey,  Montgomery Gray,  J. Gomes,  
 C. Gonzalez-Espinoza,  S. Gulania,  A. Gunina,  J. A. Gyamfi,  
 M. W. D. Hanson-Heine,  P. H. P. Harbach,  A. W. Hauser,  M. F. Herbst,  
 M. Hernandez Vera,  M. Hodecker,  Z. C. Holden,  S. Houck,  Xunkun Huang,  
 Kerwin Hui,  B. C. Huynh,  K. Ikeda,  M. Ivanov,  Hyunjun Ji,  Zuxin Jin,  
 Hanjie Jiang,  Subrata Jana,  B. Kaduk,  S. Kaehler,  R. Kang,  
 K. Khistyaev,  Jaehoon Kim,  Yongbin Kim,  P. Klunzinger,  Z. Koczor-Benda,  
 Joong Hoon Koh,  D. Kosenkov,  Saikiran Kotaru,  L. Koulias,  T. Kowalczyk,  
 C. M. Krauter,  K. Kue,  A. Kunitsa,  T. Kus,  A. Landau,  K. V. Lawler,  
 D. Lefrancois,  S. Lehtola,  Rain Li,  Shaozhi Li,  Yi-Pei Li,  
 Jiashu Liang,  M. Liebenthal,  Hung-Hsuan Lin,  You-Sheng Lin,  Fenglai Liu,  
 Kuan-Yu Liu,  M. Loipersberger,  A. Luenser,  C. Malbon,  A. Manjanath,  
 P. Manohar,  E. Mansoor,  S. F. Manzer,  Shan-Ping Mao,  A. V. Marenich,  
 T. Markovich,  S. Mason,  F. Matz,  S. A. Maurer,  P. F. McLaughlin,  
 M. F. S. J. Menger,  J.-M. Mewes,  S. A. Mewes,  P. Morgante,  
 Mohammad Mostafanejad,  J. W. Mullinax,  K. J. Oosterbaan,  G. Paran,  
 V. Parravicini,  Alexander C. Paul,  Suranjan K. Paul,  F. Pavosevic,  
 Zheng Pei,  S. Prager,  E. I. Proynov,  E. Ramos,  B. Rana,  A. E. Rask,  
 A. Rettig,  R. M. Richard,  F. Rob,  E. Rossomme,  T. Scheele,  M. Scheurer,  
 M. Schneider,  P. E. Schneider,  N. Sergueev,  S. M. Sharada,  
 Hengyuan Shen,  W. Skomorowski,  D. W. Small,  C. J. Stein,  Yingli Su,  
 Yu-Chuan Su,  E. J. Sundstrom,  Zhen Tao,  J. Thirman,  Hung-Yi Tsai,  
 T. Tsuchimochi,  N. M. Tubman,  C. Utku,  S. P. Veccham,  O. Vydrov,  
 J. Wenzel,  Jonathan Wong,  J. Witte,  A. Yamada,  Chou-Hsun Yang,  Kun Yao,  
 S. Yeganeh,  S. R. Yost,  A. Zech,  F. Zeller,  Igor Ying Zhang,  
 Xing Zhang,  Yu Zhang,  D. Zuev,  A. Aspuru-Guzik,  A. T. Bell,  
 N. A. Besley,  K. B. Bravaya,  B. R. Brooks,  D. Casanova,  Jeng-Da Chai,  
 Hsing-Ta Chen,  S. Coriani,  C. J. Cramer,  A. E. DePrince, III,  
 R. A. DiStasio Jr.,  A. Dreuw,  B. D. Dunietz,  T. R. Furlani,  
 W. A. Goddard III,  S. Grimme,  S. Hammes-Schiffer,  T. Head-Gordon,  
 W. J. Hehre,  Chao-Ping Hsu,  T.-C. Jagau,  Yousung Jung,  A. Klamt,  
 Jing Kong,  D. S. Lambrecht,  Xiangyuan Li,  WanZhen Liang,  N. J. Mayhall,  
 C. W. McCurdy,  J. B. Neaton,  T. Neudecker,  C. Ochsenfeld,  
 J. A. Parkhill,  R. Peverati,  V. A. Rassolov,  Haisheng Ren,  Yihan Shao,  
 L. V. Slipchenko,  R. P. Steele,  J. E. Subotnik,  A. J. W. Thom,  
 A. Tkatchenko,  D. G. Truhlar,  T. Van Voorhis,  Fan Wang,  
 T. A. Wesolowski,  K. B. Whaley,  H. L. Woodcock III,  P. M. Zimmerman,  
 S. Faraji,  P. M. W. Gill,  M. Head-Gordon,  J. M. Herbert,  A. I. Krylov

 Contributors to earlier versions of Q-Chem not listed above: 
 R. D. Adamson,  B. Austin,  R. Baer,  J. Baker,  G. J. O. Beran,  
 K. Brandhorst,  S. T. Brown,  E. F. C. Byrd,  Arup K. Chakraborty,  
 G. K. L. Chan,  Chun-Min Chang,  Yunqing Chen,  C.-L. Cheng,  
 Siu Hung Chien,  D. M. Chipman,  D. L. Crittenden,  H. Dachsel,  
 R. J. Doerksen,  A. D. Dutoi,  R. G. Edgar,  J. Fosso-Tande,  
 L. Fusti-Molnar,  D. Ghosh,  A. Ghysels,  A. Golubeva-Zadorozhnaya,  
 J. Gonthier,  M. S. Gordon,  S. R. Gwaltney,  G. Hawkins,  J. E. Herr,  
 A. Heyden,  S. Hirata,  E. G. Hohenstein,  G. Kedziora,  F. J. Keil,  
 C. Kelley,  Jihan Kim,  R. A. King,  R. Z. Khaliullin,  P. P. Korambath,  
 W. Kurlancheek,  A. Laurent,  A. M. Lee,  M. S. Lee,  S. V. Levchenko,  
 Ching Yeh Lin,  D. Liotard,  E. Livshits,  R. C. Lochan,  I. Lotan,  
 L. A. Martinez-Martinez,  P. E. Maslen,  N. Nair,  D. P. O'Neill,  
 D. Neuhauser,  E. Neuscamman,  C. M. Oana,  R. Olivares-Amaya,  R. Olson,  
 T. M. Perrine,  B. Peters,  P. A. Pieniazek,  A. Prociuk,  Y. M. Rhee,  
 J. Ritchie,  M. A. Rohrdanz,  E. Rosta,  N. J. Russ,  H. F. Schaefer III,  
 M. W. Schmidt,  N. E. Schultz,  S. Sharma,  N. Shenvi,  C. D. Sherrill,  
 A. C. Simmonett,  A. Sodt,  T. Stein,  D. Stuck,  K. S. Thanthiriwatte,  
 V. Vanovschi,  L. Vogt,  Tao Wang,  A. Warshel,  M. A. Watson,  
 C. F. Williams,  Q. Wu,  X. Xu,  Jun Yang,  W. Zhang,  Yan Zhao

   Please cite Q-Chem as follows:
  "Software for the frontiers of quantum chemistry:
   An overview of developments in the Q-Chem 5 package"
   J. Chem. Phys. 155, 084801 (2021)
   https://doi.org/10.1063/5.0055522 (open access)

 Q-Chem 6.1.0 for Intel X86 EM64T Linux

 Parts of Q-Chem use Armadillo 9.900.5 (Nocturnal Misbehaviour).
 http://arma.sourceforge.net/

 Q-Chem begins on Wed Feb 12 02:45:00 2025  

 Host: n150.cluster
0

     Scratch files written to /scratch/sanghita/qchem194812/Frg1s1//
 Processing $rem in /home/chance/software/ccats2023/config/preferences:
 Processing $rem in /home/sanghita/.qchemrc:

 Checking the input file for inconsistencies... 	...done.

--------------------------------------------------------------
User input:
--------------------------------------------------------------
$molecule
0 1
 7	14.0720775000	14.4772325000	13.2163359000
 8	9.7109512000	18.5476720000	16.9529985000
 8	12.6699426000	19.5523330000	12.3564035000
 7	14.1978809000	12.5091885000	15.1593425000
 1	13.6499394000	13.1366178000	14.9463288000
 7	10.6968001000	15.7849540000	16.5189328000
 8	17.7504349000	10.6360029000	13.6758024000
 7	12.1814359000	15.9435682000	14.6317116000
 1	12.5053443000	15.1481361000	14.6714205000
 7	13.1221249000	11.7865154000	17.1941461000
 7	12.1227943000	13.8442504000	16.4446593000
 8	16.4108133000	12.1313491000	10.2097075000
 8	15.1190570000	10.0272714000	18.5288177000
 8	11.1290189000	10.3657151000	18.8545277000
 8	8.2990082000	15.1419389000	18.2749697000
 8	13.5562040000	16.9047300000	9.6341685000
 7	13.1459147000	16.6060343000	12.5358173000
 7	15.4965237000	12.5285272000	13.1505830000
 6	11.0143706000	14.5319951000	16.8417490000
 6	14.1170956000	11.7921351000	16.3321237000
 6	15.9650751000	11.1214508000	15.1360316000
 6	11.0953689000	17.8358760000	15.1810458000
 6	14.8723675000	13.5645586000	12.5930497000
 6	12.4922182000	16.8341150000	13.6409164000
 6	11.8319416000	18.0811204000	14.0187143000
 6	10.2214631000	13.7490278000	17.7741864000
 6	15.2977586000	10.9475056000	16.3546309000
 6	13.7878495000	15.4471905000	12.3009395000
 6	11.3070969000	16.4441565000	15.5508055000
 6	12.1288558000	12.6755315000	17.1472027000
 6	15.7878894000	10.0968648000	17.3722738000
 6	11.8793668000	19.3617450000	13.4496060000
 6	10.9226761000	12.5554385000	17.9638892000
 6	17.1459011000	10.4155106000	14.8643386000
 6	8.9442376000	19.5584112000	17.6118137000
 1	9.4508233000	20.3839259000	17.6632585000
 1	8.1255381000	19.7310394000	17.1214803000
 6	10.3528342000	18.8531819000	15.7951684000
 6	15.2363235000	12.1179618000	14.3756128000
 6	14.3593810000	15.1246861000	11.0045300000
 6	15.0539669000	13.9171689000	11.1762271000
 6	10.4278783000	11.5483961000	18.7950447000
 6	11.1261322000	20.3329703000	14.0524750000
 1	11.1215417000	21.1866756000	13.6859306000
 6	16.9661325000	9.4174721000	17.0587819000
 1	17.3312499000	8.8448704000	17.6938039000
 6	15.7139749000	13.3261514000	10.1105154000
 6	17.5980982000	9.5544504000	15.8707280000
 1	18.3676159000	9.0557279000	15.7163935000
 6	10.3763483000	20.0885228000	15.1826535000
 1	9.8702941000	20.7785556000	15.5427672000
 6	14.3384859000	15.7631269000	9.7584399000
 6	8.6321772000	19.0697299000	18.9670633000
 1	8.2624313000	18.1755258000	18.8979343000
 1	9.4568811000	19.0078014000	19.4734733000
 6	9.0115299000	13.9744433000	18.4301079000
 6	18.9503624000	9.9285128000	13.3515393000
 1	19.5718897000	9.9701792000	14.0942739000
 1	18.7477221000	8.9961052000	13.1746977000
 6	8.5615626000	12.9870674000	19.2757322000
 1	7.7659346000	13.1239969000	19.7387356000
 6	10.7456831000	9.4004821000	19.7917881000
 1	10.9055579000	9.7274130000	20.6904649000
 1	9.7994720000	9.2055198000	19.7001520000
 6	15.7161443000	9.4532460000	19.6551378000
 1	15.8120791000	8.4994678000	19.5104492000
 1	16.6046296000	9.8276419000	19.7676734000
 6	9.2425547000	11.8006900000	19.4622197000
 1	8.8995913000	11.1624303000	20.0457969000
 6	15.7371172000	13.9977373000	8.9128156000
 1	16.2209588000	13.6411817000	8.2022340000
 6	15.0565071000	15.1953969000	8.7359741000
 1	15.0882829000	15.6210433000	7.9096416000
 6	11.5619574000	8.1528774000	19.5377793000
 1	12.5043098000	8.3841001000	19.5056263000
 1	11.3162087000	7.7750646000	18.6776862000
 6	13.1587044000	20.8344929000	12.0573805000
 1	12.4076280000	21.4172194000	11.8660700000
 1	13.6124249000	21.1860035000	12.8386987000
 6	14.0485738000	20.8689550000	10.9657856000
 1	13.6168669000	20.3965673000	10.2359122000
 1	14.8240276000	20.3434580000	11.2165791000
 6	7.6674238000	19.9281068000	19.7290897000
 1	6.8486296000	20.0094367000	19.2146415000
 1	8.0457399000	20.8148554000	19.8223335000
 6	14.9650728000	9.6661315000	20.8608758000
 1	14.0426834000	9.4279437000	20.6759960000
 1	14.9800813000	10.6185596000	21.0489710000
 6	6.5831864000	16.3007567000	17.1086190000
 1	7.0632746000	17.1373790000	17.0218059000
 1	6.1201459000	16.1594752000	16.2678177000
 6	15.6267041000	10.9876648000	10.4400838000
 1	14.7328058000	11.1713958000	10.1105154000
 1	15.5578977000	10.8648484000	11.3998513000
 6	12.2346021000	18.4933919000	8.5301948000
 1	12.3991602000	19.0594225000	9.3002595000
 1	11.4025321000	18.0184458000	8.6893522000
 6	11.3324346000	7.1381324000	20.6132976000
 1	10.3858331000	6.9355137000	20.6534889000
 1	11.5874296000	7.5230023000	21.4653525000
 6	13.3497586000	17.4870061000	8.4273051000
 1	14.1617389000	17.9288152000	8.1331050000
 1	13.1190623000	16.8089684000	7.7713836000
 6	15.3510178000	8.9895681000	22.0601833000
 1	15.2307208000	8.0388870000	21.9122794000
 1	16.2998699000	9.1391348000	22.1904030000
 6	20.7262645000	10.0357673000	11.6361760000
 1	21.3901812000	10.0388088000	12.3435423000
 1	20.5674991000	9.1104399000	11.3950284000
 6	15.4689195000	8.5757414000	10.1908980000
 1	14.6112143000	8.5534716000	9.7391481000
 1	15.2768533000	8.5751951000	11.1426272000
 6	12.0829851000	5.8709485000	20.4187719000
 1	11.8791032000	5.2653169000	21.1357841000
 1	11.8295242000	5.4733359000	19.5827935000
 1	13.0251303000	6.0559573000	20.4139489000
 6	12.0693240000	19.3428850000	7.3485715000
 1	11.8390644000	18.7693987000	6.6026215000
 1	12.9319963000	19.7392755000	7.1492228000
 6	19.5528736000	10.5502129000	12.1522319000
 1	19.7093214000	11.4844120000	12.3564035000
 1	18.8886234000	10.5224830000	11.4448655000
 6	14.6614194000	9.3375091000	23.3286197000
 1	15.0088477000	8.7948156000	24.0408090000
 1	14.8113782000	10.2638327000	23.5295761000
 1	13.7189659000	9.1785619000	23.2337683000
 6	7.5527856000	15.2880186000	17.2066857000
 1	8.1550812000	15.4029118000	16.4559129000
 1	7.0928610000	14.4446305000	17.0684278000
 6	16.0262801000	9.8303456000	9.9079514000
 1	15.9623692000	9.9403089000	8.9465763000
 1	16.9727204000	9.7545513000	10.1105154000
 6	11.1206074000	20.3871893000	7.3935857000
 1	11.1446390000	20.8764371000	6.5688609000
 1	10.2432576000	20.0172803000	7.5205901000
 1	11.3280117000	20.9770242000	8.1218515000
 6	21.3083710000	10.7266657000	10.4561603000
 1	22.1006944000	10.2640489000	10.1732138000
 1	20.6691154000	10.7306814000	9.7407558000
 1	21.5324041000	11.6307558000	10.6908773000
 6	7.3328736000	19.3970613000	21.0891623000
 1	6.7146047000	19.9920334000	21.5216203000
 1	6.9345570000	18.5284529000	21.0055644000
 1	8.1344700000	19.3338715000	21.6132564000
 6	14.5263882000	22.0774159000	10.4416915000
 1	13.7586074000	22.5934452000	10.1523143000
 1	14.9380491000	22.5671254000	11.1699573000
 6	15.5040661000	22.0465294000	9.3082977000
 1	15.7196571000	22.9447873000	9.0478583000
 1	16.3037028000	21.5946549000	9.5880289000
 1	15.1165550000	21.5805353000	8.5639554000
 6	5.5565906000	16.5132914000	18.1182237000
 1	5.0851084000	15.6754736000	18.2532664000
 1	5.9936888000	16.7367130000	18.9542021000
 6	4.5198059000	17.6033945000	17.8095548000
 1	3.9077376000	17.6809213000	18.5442511000
 1	4.9675882000	18.4417210000	17.6761198000
 1	4.0372176000	17.3707472000	17.0137677000
 6	16.0664960000	7.3789297000	9.9240279000
 1	15.4648420000	6.6645972000	10.1458837000
 1	16.2879840000	7.3334613000	8.9915905000
 1	16.8669951000	7.2979093000	10.4481221000
$end

$rem
METHOD		PBE
BASIS		6-31G**
SYM_IGNORE		TRUE
SCF_PRINT_FRGM		TRUE
CIS_N_ROOTS		12
CIS_SINGLETS		1
CIS_TRIPLETS		0
RPA		2
!required keywords
JOBTYPE		SP
SYM_IGNORE		TRUE
SUBSYSTEM		TRUE
SAVE_SUBSYSTEM		TRUE
GEN_SCFMAN		0
ECP		0
$end
--------------------------------------------------------------
 ----------------------------------------------------------------
             Standard Nuclear Orientation (Angstroms)
    I     Atom           X                Y                Z
 ----------------------------------------------------------------
    1      N      14.0720775000    14.4772325000    13.2163359000
    2      O       9.7109512000    18.5476720000    16.9529985000
    3      O      12.6699426000    19.5523330000    12.3564035000
    4      N      14.1978809000    12.5091885000    15.1593425000
    5      H      13.6499394000    13.1366178000    14.9463288000
    6      N      10.6968001000    15.7849540000    16.5189328000
    7      O      17.7504349000    10.6360029000    13.6758024000
    8      N      12.1814359000    15.9435682000    14.6317116000
    9      H      12.5053443000    15.1481361000    14.6714205000
   10      N      13.1221249000    11.7865154000    17.1941461000
   11      N      12.1227943000    13.8442504000    16.4446593000
   12      O      16.4108133000    12.1313491000    10.2097075000
   13      O      15.1190570000    10.0272714000    18.5288177000
   14      O      11.1290189000    10.3657151000    18.8545277000
   15      O       8.2990082000    15.1419389000    18.2749697000
   16      O      13.5562040000    16.9047300000     9.6341685000
   17      N      13.1459147000    16.6060343000    12.5358173000
   18      N      15.4965237000    12.5285272000    13.1505830000
   19      C      11.0143706000    14.5319951000    16.8417490000
   20      C      14.1170956000    11.7921351000    16.3321237000
   21      C      15.9650751000    11.1214508000    15.1360316000
   22      C      11.0953689000    17.8358760000    15.1810458000
   23      C      14.8723675000    13.5645586000    12.5930497000
   24      C      12.4922182000    16.8341150000    13.6409164000
   25      C      11.8319416000    18.0811204000    14.0187143000
   26      C      10.2214631000    13.7490278000    17.7741864000
   27      C      15.2977586000    10.9475056000    16.3546309000
   28      C      13.7878495000    15.4471905000    12.3009395000
   29      C      11.3070969000    16.4441565000    15.5508055000
   30      C      12.1288558000    12.6755315000    17.1472027000
   31      C      15.7878894000    10.0968648000    17.3722738000
   32      C      11.8793668000    19.3617450000    13.4496060000
   33      C      10.9226761000    12.5554385000    17.9638892000
   34      C      17.1459011000    10.4155106000    14.8643386000
   35      C       8.9442376000    19.5584112000    17.6118137000
   36      H       9.4508233000    20.3839259000    17.6632585000
   37      H       8.1255381000    19.7310394000    17.1214803000
   38      C      10.3528342000    18.8531819000    15.7951684000
   39      C      15.2363235000    12.1179618000    14.3756128000
   40      C      14.3593810000    15.1246861000    11.0045300000
   41      C      15.0539669000    13.9171689000    11.1762271000
   42      C      10.4278783000    11.5483961000    18.7950447000
   43      C      11.1261322000    20.3329703000    14.0524750000
   44      H      11.1215417000    21.1866756000    13.6859306000
   45      C      16.9661325000     9.4174721000    17.0587819000
   46      H      17.3312499000     8.8448704000    17.6938039000
   47      C      15.7139749000    13.3261514000    10.1105154000
   48      C      17.5980982000     9.5544504000    15.8707280000
   49      H      18.3676159000     9.0557279000    15.7163935000
   50      C      10.3763483000    20.0885228000    15.1826535000
   51      H       9.8702941000    20.7785556000    15.5427672000
   52      C      14.3384859000    15.7631269000     9.7584399000
   53      C       8.6321772000    19.0697299000    18.9670633000
   54      H       8.2624313000    18.1755258000    18.8979343000
   55      H       9.4568811000    19.0078014000    19.4734733000
   56      C       9.0115299000    13.9744433000    18.4301079000
   57      C      18.9503624000     9.9285128000    13.3515393000
   58      H      19.5718897000     9.9701792000    14.0942739000
   59      H      18.7477221000     8.9961052000    13.1746977000
   60      C       8.5615626000    12.9870674000    19.2757322000
   61      H       7.7659346000    13.1239969000    19.7387356000
   62      C      10.7456831000     9.4004821000    19.7917881000
   63      H      10.9055579000     9.7274130000    20.6904649000
   64      H       9.7994720000     9.2055198000    19.7001520000
   65      C      15.7161443000     9.4532460000    19.6551378000
   66      H      15.8120791000     8.4994678000    19.5104492000
   67      H      16.6046296000     9.8276419000    19.7676734000
   68      C       9.2425547000    11.8006900000    19.4622197000
   69      H       8.8995913000    11.1624303000    20.0457969000
   70      C      15.7371172000    13.9977373000     8.9128156000
   71      H      16.2209588000    13.6411817000     8.2022340000
   72      C      15.0565071000    15.1953969000     8.7359741000
   73      H      15.0882829000    15.6210433000     7.9096416000
   74      C      11.5619574000     8.1528774000    19.5377793000
   75      H      12.5043098000     8.3841001000    19.5056263000
   76      H      11.3162087000     7.7750646000    18.6776862000
   77      C      13.1587044000    20.8344929000    12.0573805000
   78      H      12.4076280000    21.4172194000    11.8660700000
   79      H      13.6124249000    21.1860035000    12.8386987000
   80      C      14.0485738000    20.8689550000    10.9657856000
   81      H      13.6168669000    20.3965673000    10.2359122000
   82      H      14.8240276000    20.3434580000    11.2165791000
   83      C       7.6674238000    19.9281068000    19.7290897000
   84      H       6.8486296000    20.0094367000    19.2146415000
   85      H       8.0457399000    20.8148554000    19.8223335000
   86      C      14.9650728000     9.6661315000    20.8608758000
   87      H      14.0426834000     9.4279437000    20.6759960000
   88      H      14.9800813000    10.6185596000    21.0489710000
   89      C       6.5831864000    16.3007567000    17.1086190000
   90      H       7.0632746000    17.1373790000    17.0218059000
   91      H       6.1201459000    16.1594752000    16.2678177000
   92      C      15.6267041000    10.9876648000    10.4400838000
   93      H      14.7328058000    11.1713958000    10.1105154000
   94      H      15.5578977000    10.8648484000    11.3998513000
   95      C      12.2346021000    18.4933919000     8.5301948000
   96      H      12.3991602000    19.0594225000     9.3002595000
   97      H      11.4025321000    18.0184458000     8.6893522000
   98      C      11.3324346000     7.1381324000    20.6132976000
   99      H      10.3858331000     6.9355137000    20.6534889000
  100      H      11.5874296000     7.5230023000    21.4653525000
  101      C      13.3497586000    17.4870061000     8.4273051000
  102      H      14.1617389000    17.9288152000     8.1331050000
  103      H      13.1190623000    16.8089684000     7.7713836000
  104      C      15.3510178000     8.9895681000    22.0601833000
  105      H      15.2307208000     8.0388870000    21.9122794000
  106      H      16.2998699000     9.1391348000    22.1904030000
  107      C      20.7262645000    10.0357673000    11.6361760000
  108      H      21.3901812000    10.0388088000    12.3435423000
  109      H      20.5674991000     9.1104399000    11.3950284000
  110      C      15.4689195000     8.5757414000    10.1908980000
  111      H      14.6112143000     8.5534716000     9.7391481000
  112      H      15.2768533000     8.5751951000    11.1426272000
  113      C      12.0829851000     5.8709485000    20.4187719000
  114      H      11.8791032000     5.2653169000    21.1357841000
  115      H      11.8295242000     5.4733359000    19.5827935000
  116      H      13.0251303000     6.0559573000    20.4139489000
  117      C      12.0693240000    19.3428850000     7.3485715000
  118      H      11.8390644000    18.7693987000     6.6026215000
  119      H      12.9319963000    19.7392755000     7.1492228000
  120      C      19.5528736000    10.5502129000    12.1522319000
  121      H      19.7093214000    11.4844120000    12.3564035000
  122      H      18.8886234000    10.5224830000    11.4448655000
  123      C      14.6614194000     9.3375091000    23.3286197000
  124      H      15.0088477000     8.7948156000    24.0408090000
  125      H      14.8113782000    10.2638327000    23.5295761000
  126      H      13.7189659000     9.1785619000    23.2337683000
  127      C       7.5527856000    15.2880186000    17.2066857000
  128      H       8.1550812000    15.4029118000    16.4559129000
  129      H       7.0928610000    14.4446305000    17.0684278000
  130      C      16.0262801000     9.8303456000     9.9079514000
  131      H      15.9623692000     9.9403089000     8.9465763000
  132      H      16.9727204000     9.7545513000    10.1105154000
  133      C      11.1206074000    20.3871893000     7.3935857000
  134      H      11.1446390000    20.8764371000     6.5688609000
  135      H      10.2432576000    20.0172803000     7.5205901000
  136      H      11.3280117000    20.9770242000     8.1218515000
  137      C      21.3083710000    10.7266657000    10.4561603000
  138      H      22.1006944000    10.2640489000    10.1732138000
  139      H      20.6691154000    10.7306814000     9.7407558000
  140      H      21.5324041000    11.6307558000    10.6908773000
  141      C       7.3328736000    19.3970613000    21.0891623000
  142      H       6.7146047000    19.9920334000    21.5216203000
  143      H       6.9345570000    18.5284529000    21.0055644000
  144      H       8.1344700000    19.3338715000    21.6132564000
  145      C      14.5263882000    22.0774159000    10.4416915000
  146      H      13.7586074000    22.5934452000    10.1523143000
  147      H      14.9380491000    22.5671254000    11.1699573000
  148      C      15.5040661000    22.0465294000     9.3082977000
  149      H      15.7196571000    22.9447873000     9.0478583000
  150      H      16.3037028000    21.5946549000     9.5880289000
  151      H      15.1165550000    21.5805353000     8.5639554000
  152      C       5.5565906000    16.5132914000    18.1182237000
  153      H       5.0851084000    15.6754736000    18.2532664000
  154      H       5.9936888000    16.7367130000    18.9542021000
  155      C       4.5198059000    17.6033945000    17.8095548000
  156      H       3.9077376000    17.6809213000    18.5442511000
  157      H       4.9675882000    18.4417210000    17.6761198000
  158      H       4.0372176000    17.3707472000    17.0137677000
  159      C      16.0664960000     7.3789297000     9.9240279000
  160      H      15.4648420000     6.6645972000    10.1458837000
  161      H      16.2879840000     7.3334613000     8.9915905000
  162      H      16.8669951000     7.2979093000    10.4481221000
 ----------------------------------------------------------------
 Nuclear Repulsion Energy =       13987.39809617 hartrees
 There are      293 alpha and      293 beta electrons
 Requested basis set is 6-31G(d,p)
 There are 566 shells and 1610 basis functions

 Total QAlloc Memory Limit   2000 MB
 Mega-Array Size       188 MB
 MEM_STATIC part       192 MB

 A cutoff of  1.0D-12 yielded  35166 shell pairs
 There are    310040 function pairs
 Smallest overlap matrix eigenvalue = 1.72E-04

 Scale SEOQF with 1.000000e-03/1.000000e-03/1.000000e-03

 Standard Electronic Orientation quadrupole field applied
 Nucleus-field energy     =    -0.0000000199 hartrees
 Guess from superposition of atomic densities
 Warning:  Energy on first SCF cycle will be non-variational
 SAD guess density has 586.000001 electrons
 A restricted Kohn-Sham SCF calculation will be
 performed using Pulay DIIS extrapolation
 Exchange:  PBE      Correlation:  PBE
 Using SG-1 standard quadrature grid
 SCF converges when DIIS error is below 1.0E-08
 using 8 threads for integral computing
 -------------------------------------------------------
 OpenMP Integral computing Module                
 Release: version 1.0, May 2013, Q-Chem Inc. Pittsburgh 
 -------------------------------------------------------
 ---------------------------------------
  Cycle       Energy         DIIS Error
 ---------------------------------------
    1   -3544.7381604184      2.10E-02
    2   -3519.7203752505      2.73E-03
    3   -3518.3811684178      3.43E-03
    4   -3521.9156710491      9.04E-04
    5   -3522.1537642590      4.18E-04
    6   -3522.2107806264      1.75E-04
    7   -3522.2169124923      1.13E-04
    8   -3522.2208494205      6.25E-05
    9   -3522.2225638443      2.07E-05
   10   -3522.2227038202      9.48E-06
   11   -3522.2227323390      4.81E-06
   12   -3522.2227420471      2.04E-06
   13   -3522.2227436180      6.46E-07
   14   -3522.2227437480      2.01E-07
   15   -3522.2227437603      7.09E-08
   16   -3522.2227437613      3.04E-08
   17   -3522.2227437617      1.21E-08
   18   -3522.2227437620      4.63E-09 Convergence criterion met
 ---------------------------------------
 SCF time:  CPU 2029.56 s  wall 325.84 s
 SCF   energy in the final basis set = -3522.22274376
 Total energy in the final basis set = -3522.22274376

 CIS/TDDFT memory preview:
 --------------------------
	NOV = NOa*NVa + NOb*NVb = 771762
	NRoots = 12, max iter = 30, max vectors = 360
	Size of each subspace vector: 5.89 Mb
	Davidson algorithm may add up to 2 x NOV x NRoots (= 141.3 Mb) per iteration
	Max memory = 4239.4 Mb (worst case scenario)
	Currently available memory = 2000.0 Mb

	In case of problems:
	(a) increase memory (MEM_TOTAL = 4240 can hold 360 subspace vectors), or
	(b) request fewer states (CIS_N_ROOTS = 5 will fit in current MEM_TOTAL), or
	(c) reduce MAX_CIS_SUBSPACE (= 169 will fit in current MEM_TOTAL).
	Reducing MAX_CIS_SUBSPACE may hamper convergence.

 CIS energy converged when residual is below 10e- 6

 Direct TDDFT calculation will be performed
 Exchange:  PBE      Correlation:  PBE
 Using SG-1 standard quadrature grid
 ---------------------------------------------------
 Iter    Rts Conv    Rts Left    Ttl Dev     Max Dev
 ---------------------------------------------------
   1         0          12      0.001990    0.000232
   2         0          12      0.000872    0.000157
   3         0          12      0.000399    0.000085
   4         0          12      0.000164    0.000046
   5         0          12      0.000091    0.000021
   6         1          11      0.000051    0.000013
   7         3           9      0.000025    0.000008
   8         6           6      0.000016    0.000004
   9         9           3      0.000011    0.000003
  10        12           0      0.000008    0.000001    Roots Converged
 ---------------------------------------------------
 
 ---------------------------------------------------
             TDDFT Excitation Energies              
 ---------------------------------------------------

 Excited state   1: excitation energy (eV) =    1.5363
 Total energy for state  1:                 -3522.16628625 au
    Multiplicity: Singlet 
    Trans. Mom.: -1.2871 X  -0.2351 Y   1.9890 Z
    Strength   :     0.2133362505
    X: D(  291) --> V(    1) amplitude = -0.2619
    X: D(  293) --> V(    1) amplitude =  0.9442

 Excited state   2: excitation energy (eV) =    1.6557
 Total energy for state  2:                 -3522.16189840 au
    Multiplicity: Singlet 
    Trans. Mom.: -1.2995 X   2.3052 Y  -0.5646 Z
    Strength   :     0.2969830954
    X: D(  293) --> V(    2) amplitude =  0.9556

 Excited state   3: excitation energy (eV) =    1.8835
 Total energy for state  3:                 -3522.15352581 au
    Multiplicity: Singlet 
    Trans. Mom.:  0.0603 X   0.0006 Y  -0.0695 Z
    Strength   :     0.0003908960
    X: D(  291) --> V(    1) amplitude =  0.2321
    X: D(  292) --> V(    1) amplitude =  0.9683

 Excited state   4: excitation energy (eV) =    2.0118
 Total energy for state  4:                 -3522.14881191 au
    Multiplicity: Singlet 
    Trans. Mom.: -0.7914 X  -0.4805 Y   1.6630 Z
    Strength   :     0.1785522312
    X: D(  291) --> V(    1) amplitude =  0.9216
    X: D(  292) --> V(    1) amplitude = -0.2149
    X: D(  293) --> V(    1) amplitude =  0.2680

 Excited state   5: excitation energy (eV) =    2.1011
 Total energy for state  5:                 -3522.14553152 au
    Multiplicity: Singlet 
    Trans. Mom.:  0.8823 X  -1.0583 Y  -0.0560 Z
    Strength   :     0.0978836027
    X: D(  290) --> V(    2) amplitude = -0.4876
    X: D(  291) --> V(    2) amplitude =  0.8028

 Excited state   6: excitation energy (eV) =    2.1344
 Total energy for state  6:                 -3522.14430730 au
    Multiplicity: Singlet 
    Trans. Mom.: -0.1520 X  -0.6374 Y  -0.0622 Z
    Strength   :     0.0226562663
    X: D(  290) --> V(    1) amplitude =  0.6725
    X: D(  291) --> V(    2) amplitude =  0.3902
    X: D(  292) --> V(    2) amplitude =  0.5366
    X: D(  293) --> V(    3) amplitude = -0.2422

 Excited state   7: excitation energy (eV) =    2.1529
 Total energy for state  7:                 -3522.14362503 au
    Multiplicity: Singlet 
    Trans. Mom.:  0.6035 X  -0.5927 Y   0.1394 Z
    Strength   :     0.0387662693
    X: D(  290) --> V(    2) amplitude =  0.8334
    X: D(  291) --> V(    2) amplitude =  0.3592
    X: D(  292) --> V(    2) amplitude = -0.3413

 Excited state   8: excitation energy (eV) =    2.2273
 Total energy for state  8:                 -3522.14089136 au
    Multiplicity: Singlet 
    Trans. Mom.: -0.0357 X   0.0028 Y   0.0364 Z
    Strength   :     0.0001423513
    X: D(  290) --> V(    1) amplitude = -0.6484
    X: D(  292) --> V(    2) amplitude =  0.6810

 Excited state   9: excitation energy (eV) =    2.3574
 Total energy for state  9:                 -3522.13611195 au
    Multiplicity: Singlet 
    Trans. Mom.: -0.1681 X  -0.2246 Y   0.3438 Z
    Strength   :     0.0113718353
    X: D(  289) --> V(    1) amplitude =  0.9605

 Excited state  10: excitation energy (eV) =    2.4153
 Total energy for state 10:                 -3522.13398407 au
    Multiplicity: Singlet 
    Trans. Mom.: -0.0452 X   0.3759 Y  -0.2677 Z
    Strength   :     0.0127213470
    X: D(  288) --> V(    1) amplitude =  0.7363
    X: D(  289) --> V(    2) amplitude =  0.6535

 Excited state  11: excitation energy (eV) =    2.4433
 Total energy for state 11:                 -3522.13295463 au
    Multiplicity: Singlet 
    Trans. Mom.: -0.0308 X  -0.2307 Y   0.2468 Z
    Strength   :     0.0068914631
    X: D(  287) --> V(    1) amplitude =  0.2811
    X: D(  288) --> V(    1) amplitude = -0.6093
    X: D(  289) --> V(    2) amplitude =  0.6959

 Excited state  12: excitation energy (eV) =    2.5301
 Total energy for state 12:                 -3522.12976457 au
    Multiplicity: Singlet 
    Trans. Mom.: -0.0683 X  -0.0524 Y   0.1817 Z
    Strength   :     0.0025066534
    X: D(  287) --> V(    2) amplitude =  0.2311
    X: D(  288) --> V(    2) amplitude = -0.9457
 
 ---------------------------------------------------
  SETman timing summary (seconds)
  CPU time              9940.77s
  System time              0.01s
  Wall time             1380.87s
 
 --------------------------------------------------------------
 
                    Orbital Energies (a.u.)
 --------------------------------------------------------------
 
 Alpha MOs
 -- Occupied --
-18.7961 -18.7953 -18.7916 -18.7860 -18.7860 -18.7802 -18.7625 -18.7589
-14.0226 -14.0216 -13.9833 -13.9832 -13.9823 -13.9804 -13.9697 -13.9690
 -9.9612  -9.9609  -9.9604  -9.9589  -9.9516  -9.9509  -9.9471  -9.9455
 -9.9441  -9.9437  -9.9430  -9.9426  -9.9422  -9.9419  -9.9342  -9.9316
 -9.9155  -9.9143  -9.9118  -9.9113  -9.9068  -9.9039  -9.8980  -9.8975
 -9.8966  -9.8962  -9.8848  -9.8848  -9.8841  -9.8839  -9.8784  -9.8778
 -9.8764  -9.8759  -9.8756  -9.8738  -9.8727  -9.8709  -9.8708  -9.8693
 -9.8585  -9.8582  -9.8566  -9.8559  -9.8540  -9.8515  -9.8495  -9.8469
 -9.8469  -9.8457  -9.8432  -9.8432  -9.8429  -9.8428  -9.8411  -9.8394
 -9.8346  -9.8342  -9.8342  -9.8339  -9.8337  -9.8311  -9.8257  -9.8255
 -0.9832  -0.9701  -0.9683  -0.9674  -0.9664  -0.9654  -0.9633  -0.9416
 -0.9255  -0.9220  -0.8805  -0.8647  -0.8436  -0.8107  -0.8028  -0.7828
 -0.7825  -0.7802  -0.7744  -0.7668  -0.7664  -0.7652  -0.7626  -0.7597
 -0.7515  -0.7482  -0.7453  -0.7387  -0.7101  -0.7069  -0.7063  -0.7053
 -0.7017  -0.6946  -0.6895  -0.6888  -0.6867  -0.6788  -0.6741  -0.6735
 -0.6649  -0.6537  -0.6493  -0.6481  -0.6357  -0.6224  -0.6181  -0.6171
 -0.6102  -0.6044  -0.6019  -0.5996  -0.5989  -0.5890  -0.5842  -0.5821
 -0.5786  -0.5643  -0.5571  -0.5561  -0.5531  -0.5501  -0.5481  -0.5472
 -0.5455  -0.5442  -0.5396  -0.5338  -0.5334  -0.5324  -0.5288  -0.5237
 -0.5170  -0.5142  -0.5106  -0.4958  -0.4895  -0.4843  -0.4803  -0.4789
 -0.4770  -0.4737  -0.4715  -0.4713  -0.4697  -0.4679  -0.4652  -0.4592
 -0.4569  -0.4567  -0.4555  -0.4437  -0.4367  -0.4347  -0.4326  -0.4298
 -0.4286  -0.4265  -0.4257  -0.4229  -0.4221  -0.4183  -0.4163  -0.4152
 -0.4146  -0.4130  -0.4115  -0.4108  -0.4082  -0.4072  -0.4049  -0.4043
 -0.4028  -0.3997  -0.3982  -0.3974  -0.3941  -0.3938  -0.3916  -0.3887
 -0.3835  -0.3810  -0.3764  -0.3742  -0.3707  -0.3694  -0.3686  -0.3648
 -0.3637  -0.3598  -0.3595  -0.3584  -0.3581  -0.3560  -0.3543  -0.3535
 -0.3498  -0.3495  -0.3485  -0.3475  -0.3459  -0.3455  -0.3442  -0.3429
 -0.3413  -0.3378  -0.3327  -0.3317  -0.3299  -0.3292  -0.3264  -0.3233
 -0.3221  -0.3189  -0.3187  -0.3186  -0.3140  -0.3107  -0.3052  -0.3036
 -0.3032  -0.3023  -0.2999  -0.2986  -0.2966  -0.2964  -0.2945  -0.2924
 -0.2909  -0.2900  -0.2873  -0.2871  -0.2861  -0.2858  -0.2839  -0.2836
 -0.2820  -0.2812  -0.2793  -0.2752  -0.2729  -0.2722  -0.2690  -0.2664
 -0.2640  -0.2625  -0.2616  -0.2588  -0.2572  -0.2548  -0.2519  -0.2423
 -0.2401  -0.2385  -0.2340  -0.2281  -0.2238  -0.2209  -0.2184  -0.2168
 -0.2056  -0.2035  -0.2030  -0.2014  -0.1968  -0.1942  -0.1900  -0.1848
 -0.1796  -0.1708  -0.1662  -0.1654  -0.1380
 -- Virtual --
 -0.0972  -0.0932  -0.0483  -0.0260  -0.0154  -0.0122  -0.0089   0.0128
  0.0178   0.0205   0.0433   0.0454   0.0490   0.0536   0.0555   0.0662
  0.0826   0.0847   0.0851   0.0888   0.0932   0.0943   0.0949   0.0970
  0.1004   0.1015   0.1018   0.1047   0.1079   0.1085   0.1094   0.1132
  0.1138   0.1157   0.1166   0.1216   0.1233   0.1279   0.1283   0.1286
  0.1306   0.1330   0.1342   0.1377   0.1421   0.1450   0.1458   0.1476
  0.1503   0.1507   0.1532   0.1546   0.1569   0.1575   0.1589   0.1608
  0.1641   0.1654   0.1661   0.1675   0.1691   0.1701   0.1723   0.1736
  0.1746   0.1754   0.1767   0.1781   0.1795   0.1805   0.1823   0.1827
  0.1855   0.1876   0.1877   0.1884   0.1910   0.1914   0.1924   0.1936
  0.1943   0.1951   0.1961   0.1971   0.1982   0.1987   0.2003   0.2027
  0.2034   0.2043   0.2047   0.2063   0.2077   0.2081   0.2093   0.2110
  0.2111   0.2116   0.2137   0.2145   0.2162   0.2166   0.2171   0.2190
  0.2202   0.2208   0.2211   0.2220   0.2233   0.2251   0.2257   0.2275
  0.2299   0.2313   0.2325   0.2340   0.2392   0.2400   0.2412   0.2447
  0.2456   0.2465   0.2485   0.2499   0.2517   0.2529   0.2545   0.2563
  0.2577   0.2608   0.2629   0.2652   0.2660   0.2683   0.2713   0.2729
  0.2737   0.2754   0.2762   0.2777   0.2803   0.2808   0.2833   0.2857
  0.2864   0.2896   0.2910   0.2949   0.2959   0.2969   0.3017   0.3095
  0.3110   0.3163   0.3213   0.3245   0.3273   0.3308   0.3327   0.3336
  0.3362   0.3448   0.3489   0.3574   0.3597   0.3646   0.3655   0.3692
  0.3709   0.3748   0.3858   0.3906   0.4069   0.4120   0.4137   0.4221
  0.4246   0.4346   0.4359   0.4485   0.4506   0.4524   0.4558   0.4564
  0.4585   0.4598   0.4605   0.4619   0.4657   0.4674   0.4697   0.4705
  0.4751   0.4760   0.4767   0.4773   0.4799   0.4814   0.4839   0.4867
[...]
  1.1828   1.1885   1.1888   1.1895   1.1918   1.1956   1.2001   1.2024
  1.2059   1.2096   1.2105   1.2121   1.2145   1.2150   1.2161   1.2210
  1.2225   1.2248   1.2316   1.2349   1.2387   1.2449   1.2469   1.2526
  1.2572   1.2582   1.2617   1.2662   1.2699   1.2728   1.2752   1.2762
  1.2777   1.2795   1.2818   1.2847   1.2875   1.2890   1.2925   1.2952
  1.2961   1.2999   1.3037   1.3060   1.3099   1.3153   1.3188   1.3244
  1.3254   1.3285   1.3297   1.3354   1.3366   1.3388   1.3406   1.3460
  1.3510   1.3530   1.3577   1.3610   1.3620   1.3651   1.3685   1.3732
  1.3751   1.3791   1.3829   1.3843   1.3862   1.3909   1.3925   1.3937
  1.3961   1.4042   1.4091   1.4098   1.4118   1.4186   1.4225   1.4254
  1.4282   1.4378   1.4431   1.4483   1.4529   1.4577   1.4609   1.4643
  1.4663   1.4669   1.4700   1.4715   1.4779   1.4820   1.4938   1.4995
  1.5082   1.5098   1.5140   1.5201   1.5253   1.5313   1.5345   1.5371
  1.5450   1.5501   1.5531   1.5588   1.5644   1.5687   1.5704   1.5748
  1.5780   1.5795   1.5806   1.5842   1.5885   1.5908   1.5934   1.5940
  1.5966   1.5990   1.6020   1.6036   1.6114   1.6172   1.6189   1.6223
  1.6243   1.6260   1.6327   1.6357   1.6383   1.6402   1.6441   1.6470
  1.6500   1.6504   1.6515   1.6557   1.6560   1.6581   1.6604   1.6636
  1.6664   1.6693   1.6732   1.6739   1.6762   1.6787   1.6801   1.6805
  1.6876   1.6909   1.6925   1.6938   1.6959   1.6984   1.7002   1.7046
  1.7068   1.7135   1.7178   1.7198   1.7258   1.7298   1.7326   1.7352
  1.7392   1.7399   1.7456   1.7491   1.7522   1.7565   1.7591   1.7645
  1.7727   1.7781   1.7798   1.7851   1.7896   1.7990   1.7999   1.8029
  1.8034   1.8071   1.8113   1.8168   1.8176   1.8210   1.8314   1.8316
  1.8348   1.8380   1.8409   1.8427   1.8454   1.8490   1.8508   1.8515
  1.8547   1.8578   1.8589   1.8613   1.8634   1.8702   1.8720   1.8742
  1.8768   1.8775   1.8828   1.8855   1.8886   1.8915   1.8926   1.8951
  1.8967   1.8992   1.9001   1.9078   1.9105   1.9153   1.9176   1.9186
  1.9220   1.9230   1.9301   1.9308   1.9316   1.9341   1.9367   1.9377
  1.9400   1.9409   1.9436   1.9448   1.9476   1.9490   1.9505   1.9613
  1.9624   1.9666   1.9679   1.9719   1.9797   1.9827   1.9865   1.9921
  1.9938   1.9959   2.0027   2.0044   2.0077   2.0105   2.0155   2.0170
  2.0202   2.0244   2.0299   2.0322   2.0341   2.0380   2.0428   2.0458
  2.0462   2.0480   2.0482   2.0488   2.0490   2.0522   2.0531   2.0545
  2.0551   2.0554   2.0560   2.0587   2.0600   2.0641   2.0670   2.0763
  2.0815   2.0913   2.1001   2.1087   2.1178   2.1224   2.1257   2.1267
  2.1332   2.1448   2.1519   2.1546   2.1586   2.1653   2.1669   2.1680
  2.1701   2.1714   2.1727   2.1750   2.1761   2.1775   2.1798   2.1801
  2.1814   2.1840   2.1859   2.1866   2.1883   2.1916   2.1952   2.1977
  2.1989   2.2016   2.2035   2.2048   2.2052   2.2092   2.2107   2.2130
  2.2146   2.2155   2.2171   2.2179   2.2194   2.2199   2.2217   2.2220
  2.2224   2.2238   2.2252   2.2274   2.2276   2.2296   2.2329   2.2341
  2.2375   2.2397   2.2414   2.2435   2.2463   2.2480   2.2512   2.2527
  2.2561   2.2564   2.2594   2.2618   2.2635   2.2649   2.2676   2.2690
  2.2708   2.2753   2.2767   2.2791   2.2825   2.2830   2.2868   2.2880
  2.2888   2.2929   2.2944   2.2956   2.2971   2.2973   2.2990   2.3041
  2.3054   2.3094   2.3103   2.3130   2.3135   2.3185   2.3234   2.3253
  2.3267   2.3329   2.3343   2.3351   2.3371   2.3384   2.3428   2.3439
  2.3455   2.3460   2.3475   2.3477   2.3519   2.3549   2.3553   2.3569
  2.3582   2.3617   2.3674   2.3699   2.3710   2.3748   2.3761   2.3783
  2.3796   2.3808   2.3821   2.3838   2.3849   2.3879   2.3921   2.3942
  2.3962   2.3971   2.3980   2.4008   2.4035   2.4073   2.4104   2.4143
  2.4202   2.4291   2.4303   2.4311   2.4380   2.4389   2.4424   2.4434
  2.4502   2.4544   2.4585   2.4611   2.4651   2.4670   2.4697   2.4775
  2.4837   2.4855   2.4875   2.4896   2.4909   2.4970   2.4992   2.5019
  2.5049   2.5107   2.5115   2.5123   2.5142   2.5179   2.5201   2.5262
  2.5275   2.5290   2.5335   2.5343   2.5389   2.5401   2.5414   2.5435
  2.5471   2.5488   2.5527   2.5556   2.5601   2.5626   2.5688   2.5719
  2.5763   2.5784   2.5797   2.5807   2.5818   2.5855   2.5908   2.5979
  2.5998   2.6023   2.6092   2.6117   2.6170   2.6199   2.6231   2.6248
  2.6282   2.6296   2.6327   2.6384   2.6396   2.6464   2.6507   2.6541
  2.6561   2.6571   2.6642   2.6670   2.6689   2.6730   2.6751   2.6768
  2.6788   2.6859   2.6978   2.6992   2.7065   2.7090   2.7165   2.7168
  2.7220   2.7243   2.7289   2.7334   2.7360   2.7383   2.7431   2.7458
  2.7460   2.7491   2.7519   2.7534   2.7569   2.7617   2.7657   2.7685
  2.7734   2.7761   2.7821   2.7881   2.7926   2.7946   2.7978   2.7999
  2.8022   2.8039   2.8050   2.8056   2.8094   2.8119   2.8136   2.8146
  2.8202   2.8215   2.8282   2.8349   2.8377   2.8402   2.8470   2.8523
  2.8564   2.8629   2.8720   2.8750   2.8794   2.8845   2.8882   2.8939
  2.8986   2.9014   2.9062   2.9116   2.9144   2.9150   2.9183   2.9214
  2.9263   2.9360   2.9419   2.9493   2.9505   2.9551   2.9566   2.9605
  2.9702   2.9776   2.9850   2.9871   2.9928   2.9948   3.0040   3.0060
  3.0165   3.0221   3.0230   3.0273   3.0303   3.0359   3.0393   3.0400
  3.0444   3.0459   3.0486   3.0490   3.0508   3.0537   3.0555   3.0604
  3.0629   3.0667   3.0785   3.0803   3.0819   3.0881   3.0943   3.0960
  3.1097   3.1159   3.1174   3.1197   3.1264   3.1309   3.1327   3.1345
  3.1355   3.1408   3.1421   3.1445   3.1460   3.1491   3.1505   3.1544
  3.1607   3.1617   3.1651   3.1705   3.1744   3.1774   3.1810   3.1845
  3.1847   3.1908   3.1976   3.2039   3.2103   3.2164   3.2216   3.2421
  3.2462   3.2536   3.2554   3.2633   3.2675   3.2756   3.2888   3.2953
  3.3068   3.3104   3.3237   3.3865   3.4257   3.4888   3.5040   3.5148
  3.5153   3.5237   3.5239   3.5257   3.5353   3.5393   3.5422   3.5434
  3.5451   3.5524   3.5663   3.5723   3.5739   3.5775   3.5802   3.5826
  3.5862   3.5897   3.5921   3.5999   3.6023   3.6038   3.6128   3.6130
  3.6138   3.6246   3.6247   3.6348   3.6361   3.6373   3.6399   3.6422
  3.6425   3.6494   3.6505   3.6617   3.6625   3.6652   3.6710   3.6721
  3.6726   3.6729   3.6734   3.6746   3.6751   3.6762   3.6770   3.6787
  3.6867   3.6887   3.7110   3.7149   3.7176   3.7194   3.7372   3.7711
  3.7755   3.7761   3.7810   3.7862   3.7880   3.7981   3.8000   3.8092
  3.8109   3.8160   3.8200   3.8212   3.8312   3.8333   3.8435   3.8678
  3.8769   3.8879   3.8985   3.9029   3.9086   3.9186   3.9409   3.9504
  3.9529   3.9663   3.9693   3.9766   3.9824   4.0304   4.0351   4.0377
  4.0473   4.0579   4.0614   4.0635   4.0659   4.0678   4.0761   4.0778
  4.0908   4.1264   4.1330   4.1464   4.1623   4.1798   4.1928   4.2097
  4.2157   4.2210   4.2333   4.2489   4.2555   4.2580   4.2625   4.2695
  4.2791   4.2841   4.3013   4.3072   4.3183   4.3731   4.3766   4.3829
  4.3913   4.3944   4.3974   4.3993   4.4075   4.4160   4.4223   4.4304
  4.4419   4.4505   4.4530   4.4736   4.4895   4.4918   4.5109   4.5188
  4.5214   4.5280   4.5320   4.5348   4.5360   4.5482   4.5486   4.5566
  4.5655   4.5857   4.5899   4.6033   4.6069   4.6324   4.6409   4.6729
  4.6856   4.6966   4.7002   4.7074   4.7156   4.7174   4.7680   4.8032
  4.8155   4.9203   4.9326   4.9396   4.9496
 --------------------------------------------------------------
 
          Ground-State Mulliken Net Atomic Charges

     Atom                 Charge (a.u.)
  ----------------------------------------
      1 N                    -0.625348
      2 O                    -0.491142
      3 O                    -0.492562
      4 N                    -0.507337
      5 H                     0.234653
      6 N                    -0.512114
      7 O                    -0.486170
      8 N                    -0.512104
      9 H                     0.237213
     10 N                    -0.499058
     11 N                    -0.621192
     12 O                    -0.522301
     13 O                    -0.474255
     14 O                    -0.484722
     15 O                    -0.482950
     16 O                    -0.474053
     17 N                    -0.495435
     18 N                    -0.514141
     19 C                     0.419707
     20 C                     0.469892
     21 C                     0.001810
     22 C                    -0.010516
     23 C                     0.425749
     24 C                     0.482395
     25 C                    -0.002841
     26 C                     0.060041
     27 C                    -0.016475
     28 C                     0.418294
     29 C                     0.482058
     30 C                     0.419853
     31 C                     0.279482
     32 C                     0.270865
     33 C                     0.013743
     34 C                     0.266922
     35 C                     0.026301
     36 H                     0.116244
     37 H                     0.115444
     38 C                     0.279119
     39 C                     0.488524
     40 C                     0.014772
     41 C                     0.060739
     42 C                     0.257448
     43 C                    -0.084794
     44 H                     0.055352
     45 C                    -0.095036
     46 H                     0.056887
     47 C                     0.212511
     48 C                    -0.086881
     49 H                     0.056974
     50 C                    -0.094335
     51 H                     0.056651
     52 C                     0.252136
     53 C                    -0.247235
     54 H                     0.152014
     55 H                     0.128909
     56 C                     0.217990
     57 C                     0.022931
     58 H                     0.114945
     59 H                     0.113779
     60 C                    -0.071648
     61 H                     0.054163
     62 C                     0.030937
     63 H                     0.111855
     64 H                     0.113460
     65 C                     0.041229
     66 H                     0.106508
     67 H                     0.112434
     68 C                    -0.091343
     69 H                     0.055919
     70 C                    -0.072200
     71 H                     0.056024
     72 C                    -0.092395
     73 H                     0.057586
     74 C                    -0.244279
     75 H                     0.141964
     76 H                     0.127001
     77 C                     0.047716
     78 H                     0.101380
     79 H                     0.110378
     80 C                    -0.248272
     81 H                     0.134637
     82 H                     0.130648
     83 C                    -0.250385
     84 H                     0.118544
     85 H                     0.115602
     86 C                    -0.250419
     87 H                     0.139048
     88 H                     0.129885
     89 C                    -0.248364
     90 H                     0.123730
     91 H                     0.114996
     92 C                     0.067863
     93 H                     0.088197
     94 H                     0.118942
     95 C                    -0.252092
     96 H                     0.144017
     97 H                     0.122923
     98 C                    -0.248738
     99 H                     0.118927
    100 H                     0.116888
    101 C                     0.045971
    102 H                     0.099945
    103 H                     0.103276
    104 C                    -0.242250
    105 H                     0.115133
    106 H                     0.115233
    107 C                    -0.235251
    108 H                     0.109131
    109 H                     0.109440
    110 C                    -0.224239
    111 H                     0.110766
    112 H                     0.111149
    113 C                    -0.355822
    114 H                     0.119996
    115 H                     0.127667
    116 H                     0.121811
    117 C                    -0.240095
    118 H                     0.115239
    119 H                     0.111302
    120 C                    -0.240808
    121 H                     0.130737
    122 H                     0.147422
    123 C                    -0.355076
    124 H                     0.123582
    125 H                     0.129622
    126 H                     0.124544
    127 C                     0.074361
    128 H                     0.096924
    129 H                     0.067560
    130 C                    -0.234435
    131 H                     0.100948
    132 H                     0.112768
    133 C                    -0.343328
    134 H                     0.118710
    135 H                     0.123382
    136 H                     0.116309
    137 C                    -0.353263
    138 H                     0.118526
    139 H                     0.129898
    140 H                     0.126989
    141 C                    -0.360687
    142 H                     0.118208
    143 H                     0.134044
    144 H                     0.127814
    145 C                    -0.238218
    146 H                     0.111358
    147 H                     0.113703
    148 C                    -0.356315
    149 H                     0.123266
    150 H                     0.129743
    151 H                     0.124228
    152 C                    -0.237835
    153 H                     0.107590
    154 H                     0.127229
    155 C                    -0.367853
    156 H                     0.119241
    157 H                     0.121659
    158 H                     0.123757
    159 C                    -0.335762
    160 H                     0.120515
    161 H                     0.115326
    162 H                     0.112603
  ----------------------------------------
  Sum of atomic charges =     0.000000

 -----------------------------------------------------------------
                    Cartesian Multipole Moments
 -----------------------------------------------------------------
    Charge (ESU x 10^10)
                 0.0000
    Dipole Moment (Debye)
         X      -0.3827      Y       0.7325      Z      -1.0233
       Tot       1.3153
    Quadrupole Moments (Debye-Ang)
        XX    -440.1837     XY      -5.2422     YY    -409.7592
        XZ     -21.8186     YZ       0.5924     ZZ    -448.6437
    Octopole Moments (Debye-Ang^2)
       XXX  -17549.4832    XXY    7409.8615    XYY   -4857.8768
       YYY   20907.4281    XXZ   -7904.6427    XYZ    -190.7959
       YYZ   -6388.1572    XZZ   -6188.9892    YZZ    7160.4594
       ZZZ  -22357.9928
    Hexadecapole Moments (Debye-Ang^3)
      XXXX -501822.9485   XXXY  311767.7349   XXYY -206508.1021
      XYYY  271297.6831   YYYY -771749.3552   XXXZ -301322.8126
      XXYZ  131290.2149   XYYZ  -73957.4725   YYYZ  347682.1616
      XXZZ -228984.2465   XYZZ   96682.4169   YYZZ -243354.2743
      XZZZ -294912.6899   YZZZ  380474.9382   ZZZZ -805477.5504
 -----------------------------------------------------------------
 Total job time:  1708.75s(wall), 11978.24s(cpu) 
 Wed Feb 12 03:42:07 2025

        *************************************************************
        *                                                           *
        *  Thank you very much for using Q-Chem.  Have a nice day.  *
        *                                                           *
        *************************************************************


Copy Fragment Subsystem from /scratch/sanghita/qchem194812/Frg2s1/
Copy MO Coefficient from /scratch/sanghita/qchem194812/Frg2s1/
Alpha electrons: 293
 Beta electrons: 293
Copy Set Amplitude from /scratch/sanghita/qchem194812/Frg2s1/

Total alpha electrons: 586
Total  beta electrons: 586

-----------------------------------------------------------------
 Done with SCF on isolated fragments
-----------------------------------------------------------------

-----------------------------------------------------------------
 Start with Direct Coulomb-Exchange Integration 
-----------------------------------------------------------------

 RPA/TDDFT Excited States --
 Donor    : State 1 to 6
 Acceptor : State 1 to 6
                                              Dipole-Dipole
              Coulomb (eV)    Exchange (eV)  Interaction (eV)
           ---------------  ---------------  ---------------
 ( 1, 1):  -0.000712246737                0  -0.000651488163
 ( 1, 2):   -0.00033053829                0  -0.000326588769
 ( 1, 3):  -6.66318401E-07                0   2.60714297E-05
 ( 1, 4):  -0.000510630415                0  -0.000467950134
 ( 1, 5):   0.000274633679                0   0.000270402183
 ( 1, 6):  -1.16531536E-05                0   5.93848738E-05
 ( 2, 1):  -0.000330538138                0  -0.000326588485
 ( 2, 2):   0.000848180949                0    0.00115846753
 ( 2, 3):   -3.1607682E-06                0    9.2340662E-06
 ( 2, 4):    -0.0003697888                0  -0.000397146699
 ( 2, 5):  -0.000320947939                0  -0.000489670537
 ( 2, 6):  -0.000292685328                0  -0.000398058814
 ( 3, 1):  -6.66560203E-07                0   2.60711981E-05
 ( 3, 2):   -3.1607755E-06                0   9.23407026E-06
 ( 3, 3):   1.17304109E-08                0  -1.04033706E-06
 ( 3, 4):  -5.23920033E-07                0    1.9135755E-05
 ( 3, 5):   1.22444321E-06                0  -9.05299999E-06
 ( 3, 6):   1.51207949E-06                0  -5.67719883E-07
 ( 4, 1):  -0.000510630921                0  -0.000467950642
 ( 4, 2):    -0.0003697885                0  -0.000397146266
 ( 4, 3):  -5.23736721E-07                0   1.91359536E-05
 ( 4, 4):  -0.000348082595                0  -0.000316606743
 ( 4, 5):   0.000255677148                0   0.000270747052
 ( 4, 6):   3.26284838E-05                0   9.95953799E-05
 ( 5, 1):   0.000274633228                0   0.000270401734
 ( 5, 2):   -0.00032094849                0  -0.000489671206
 ( 5, 3):   1.22439667E-06                0  -9.05302387E-06
 ( 5, 4):   0.000255676967                0   0.000270747012
 ( 5, 5):    9.2525733E-05                0   0.000183161725
 ( 5, 6):   0.000143983523                0   0.000180846206
 ( 6, 1):  -1.16537611E-05                0   5.93843177E-05
 ( 6, 2):  -0.000292684729                0  -0.000398057885
 ( 6, 3):   1.51209062E-06                0  -5.67696828E-07
 ( 6, 4):   3.26281434E-05                0   9.95950848E-05
 ( 6, 5):   0.000143983302                0   0.000180845684
 ( 6, 6):   3.15591728E-05                0   9.34202837E-05
--------------------------------------------------------------
 DC time:  CPU 9282.88 s  wall 1205.31 s


 CIS/TDDFT memory preview:
 --------------------------
	NOV = NOa*NVa + NOb*NVb = 3087048
	NRoots = 12, max iter = 30, max vectors = 360
	Size of each subspace vector: 23.55 Mb
	Davidson algorithm may add up to 2 x NOV x NRoots (= 565.3 Mb) per iteration
	Max memory = 16957.7 Mb (worst case scenario)
	Currently available memory = 2000.0 Mb

	In case of problems:
	(a) increase memory (MEM_TOTAL = 16958 can hold 360 subspace vectors), or
	(b) request fewer states (CIS_N_ROOTS = 1 will fit in current MEM_TOTAL), or
	(c) reduce MAX_CIS_SUBSPACE (= 42 will fit in current MEM_TOTAL).
	Reducing MAX_CIS_SUBSPACE may hamper convergence.

 CIS energy converged when residual is below 10e- 6
  Skipping CIS/RPA calculation, including relax
  Going directly to Wavefunction Analysis
 No wavefunction analysis requested
 Total job time:  4702.29s(wall), 9326.92s(cpu) 
 Wed Feb 12 04:02:20 2025

        *************************************************************
        *                                                           *
        *  Thank you very much for using Q-Chem.  Have a nice day.  *
        *                                                           *
        *************************************************************


