                  Welcome to Q-Chem
     A Quantum Leap Into The Future Of Chemistry


 Q-Chem 6.1 (devel), Q-Chem, Inc., Pleasanton, CA (2022)

 E. Epifanovsky,  A. T. B. Gilbert,  Xintian Feng,  Joonho Lee,  Yuezhi Mao,  
 N. Mardirossian,  P. Pokhilko,  A. White,  M. Wormit,  M. P. Coons,  
 A. L. Dempwolff,  Zhengting Gan,  D. Hait,  P. R. Horn,  L. D. Jacobson,  
 I. Kaliman,  J. Kussmann,  A. W. Lange,  Ka Un Lao,  D. S. Levine,  Jie Liu,  
 S. C. McKenzie,  A. F. Morrison,  K. Nanda,  F. Plasser,  D. R. Rehn,  
 M. L. Vidal,  Zhi-Qiang You,  Ying Zhu,  B. Alam,  B. Albrecht,  
 A. Aldossary,  E. Alguire,  J. H. Andersen,  V. Athavale,  D. Barton,  
 K. Begam,  A. Behn,  N. Bellonzi,  Y. A. Bernard,  E. J. Berquist,  
 H. Burton,  A. Carreras,  K. Carter-Fenk,  Mathew Chow,  Romit Chakraborty,  
 Chandrima Chakravarty,  Junhan Chen,  A. D. Chien,  K. D. Closser,  
 V. Cofer-Shabica,  L. Cunha,  S. Dasgupta,  Jia Deng,  M. de Wergifosse,  
 M. Diedenhofen,  Hainam Do,  S. Ehlert,  Po-Tung Fang,  S. Fatehi,  
 Qingguo Feng,  T. Friedhoff,  Thomas Froitzheim,  B. Ganoe,  J. Gayvert,  
 Qinghui Ge,  G. Gidofalvi,  M. Goldey,  Montgomery Gray,  J. Gomes,  
 C. Gonzalez-Espinoza,  S. Gulania,  A. Gunina,  J. A. Gyamfi,  
 M. W. D. Hanson-Heine,  P. H. P. Harbach,  A. W. Hauser,  M. F. Herbst,  
 M. Hernandez Vera,  M. Hodecker,  Z. C. Holden,  S. Houck,  Xunkun Huang,  
 Kerwin Hui,  B. C. Huynh,  K. Ikeda,  M. Ivanov,  Hyunjun Ji,  Zuxin Jin,  
 Hanjie Jiang,  Subrata Jana,  B. Kaduk,  S. Kaehler,  R. Kang,  
 K. Khistyaev,  Jaehoon Kim,  Yongbin Kim,  P. Klunzinger,  Z. Koczor-Benda,  
 Joong Hoon Koh,  D. Kosenkov,  Saikiran Kotaru,  L. Koulias,  T. Kowalczyk,  
 C. M. Krauter,  K. Kue,  A. Kunitsa,  T. Kus,  A. Landau,  K. V. Lawler,  
 D. Lefrancois,  S. Lehtola,  Rain Li,  Shaozhi Li,  Yi-Pei Li,  
 Jiashu Liang,  M. Liebenthal,  Hung-Hsuan Lin,  You-Sheng Lin,  Fenglai Liu,  
 Kuan-Yu Liu,  M. Loipersberger,  A. Luenser,  C. Malbon,  A. Manjanath,  
 P. Manohar,  E. Mansoor,  S. F. Manzer,  Shan-Ping Mao,  A. V. Marenich,  
 T. Markovich,  S. Mason,  F. Matz,  S. A. Maurer,  P. F. McLaughlin,  
 M. F. S. J. Menger,  J.-M. Mewes,  S. A. Mewes,  P. Morgante,  
 Mohammad Mostafanejad,  J. W. Mullinax,  K. J. Oosterbaan,  G. Paran,  
 V. Parravicini,  Alexander C. Paul,  Suranjan K. Paul,  F. Pavosevic,  
 Zheng Pei,  S. Prager,  E. I. Proynov,  E. Ramos,  B. Rana,  A. E. Rask,  
 A. Rettig,  R. M. Richard,  F. Rob,  E. Rossomme,  T. Scheele,  M. Scheurer,  
 M. Schneider,  P. E. Schneider,  N. Sergueev,  S. M. Sharada,  
 Hengyuan Shen,  W. Skomorowski,  D. W. Small,  C. J. Stein,  Yingli Su,  
 Yu-Chuan Su,  E. J. Sundstrom,  Zhen Tao,  J. Thirman,  Hung-Yi Tsai,  
 T. Tsuchimochi,  N. M. Tubman,  C. Utku,  S. P. Veccham,  O. Vydrov,  
 J. Wenzel,  Jonathan Wong,  J. Witte,  A. Yamada,  Chou-Hsun Yang,  Kun Yao,  
 S. Yeganeh,  S. R. Yost,  A. Zech,  F. Zeller,  Igor Ying Zhang,  
 Xing Zhang,  Yu Zhang,  D. Zuev,  A. Aspuru-Guzik,  A. T. Bell,  
 N. A. Besley,  K. B. Bravaya,  B. R. Brooks,  D. Casanova,  Jeng-Da Chai,  
 Hsing-Ta Chen,  S. Coriani,  C. J. Cramer,  A. E. DePrince, III,  
 R. A. DiStasio Jr.,  A. Dreuw,  B. D. Dunietz,  T. R. Furlani,  
 W. A. Goddard III,  S. Grimme,  S. Hammes-Schiffer,  T. Head-Gordon,  
 W. J. Hehre,  Chao-Ping Hsu,  T.-C. Jagau,  Yousung Jung,  A. Klamt,  
 Jing Kong,  D. S. Lambrecht,  Xiangyuan Li,  WanZhen Liang,  N. J. Mayhall,  
 C. W. McCurdy,  J. B. Neaton,  T. Neudecker,  C. Ochsenfeld,  
 J. A. Parkhill,  R. Peverati,  V. A. Rassolov,  Haisheng Ren,  Yihan Shao,  
 L. V. Slipchenko,  R. P. Steele,  J. E. Subotnik,  A. J. W. Thom,  
 A. Tkatchenko,  D. G. Truhlar,  T. Van Voorhis,  Fan Wang,  
 T. A. Wesolowski,  K. B. Whaley,  H. L. Woodcock III,  P. M. Zimmerman,  
 S. Faraji,  P. M. W. Gill,  M. Head-Gordon,  J. M. Herbert,  A. I. Krylov

 Contributors to earlier versions of Q-Chem not listed above: 
 R. D. Adamson,  B. Austin,  R. Baer,  J. Baker,  G. J. O. Beran,  
 K. Brandhorst,  S. T. Brown,  E. F. C. Byrd,  Arup K. Chakraborty,  
 G. K. L. Chan,  Chun-Min Chang,  Yunqing Chen,  C.-L. Cheng,  
 Siu Hung Chien,  D. M. Chipman,  D. L. Crittenden,  H. Dachsel,  
 R. J. Doerksen,  A. D. Dutoi,  R. G. Edgar,  J. Fosso-Tande,  
 L. Fusti-Molnar,  D. Ghosh,  A. Ghysels,  A. Golubeva-Zadorozhnaya,  
 J. Gonthier,  M. S. Gordon,  S. R. Gwaltney,  G. Hawkins,  J. E. Herr,  
 A. Heyden,  S. Hirata,  E. G. Hohenstein,  G. Kedziora,  F. J. Keil,  
 C. Kelley,  Jihan Kim,  R. A. King,  R. Z. Khaliullin,  P. P. Korambath,  
 W. Kurlancheek,  A. Laurent,  A. M. Lee,  M. S. Lee,  S. V. Levchenko,  
 Ching Yeh Lin,  D. Liotard,  E. Livshits,  R. C. Lochan,  I. Lotan,  
 L. A. Martinez-Martinez,  P. E. Maslen,  N. Nair,  D. P. O'Neill,  
 D. Neuhauser,  E. Neuscamman,  C. M. Oana,  R. Olivares-Amaya,  R. Olson,  
 T. M. Perrine,  B. Peters,  P. A. Pieniazek,  A. Prociuk,  Y. M. Rhee,  
 J. Ritchie,  M. A. Rohrdanz,  E. Rosta,  N. J. Russ,  H. F. Schaefer III,  
 M. W. Schmidt,  N. E. Schultz,  S. Sharma,  N. Shenvi,  C. D. Sherrill,  
 A. C. Simmonett,  A. Sodt,  T. Stein,  D. Stuck,  K. S. Thanthiriwatte,  
 V. Vanovschi,  L. Vogt,  Tao Wang,  A. Warshel,  M. A. Watson,  
 C. F. Williams,  Q. Wu,  X. Xu,  Jun Yang,  W. Zhang,  Yan Zhao

   Please cite Q-Chem as follows:
  "Software for the frontiers of quantum chemistry:
   An overview of developments in the Q-Chem 5 package"
   J. Chem. Phys. 155, 084801 (2021)
   https://doi.org/10.1063/5.0055522 (open access)

 Q-Chem 6.1.0 for Intel X86 EM64T Linux

 Parts of Q-Chem use Armadillo 9.900.5 (Nocturnal Misbehaviour).
 http://arma.sourceforge.net/

 Q-Chem begins on Tue Feb 11 11:10:52 2025  

 Host: n083.cluster
0

     Scratch files written to /scratch/sanghita/qchem213309//
 Processing $rem in /home/chance/software/ccats2023/config/preferences:
 Processing $rem in /home/sanghita/.qchemrc:

 Checking the input file for inconsistencies... 	...done.

--------------------------------------------------------------
User input:
--------------------------------------------------------------
$molecule
0 1
--
0 1
N   14.0720775   14.4772325   13.2163359
O    9.7109512   18.5476720   16.9529985
O   12.6699426   19.5523330   12.3564035
N   14.1978809   12.5091885   15.1593425
H   13.6499394   13.1366178   14.9463288
N   10.6968001   15.7849540   16.5189328
O   17.7504349   10.6360029   13.6758024
N   12.1814359   15.9435682   14.6317116
H   12.5053443   15.1481361   14.6714205
N   13.1221249   11.7865154   17.1941461
N   12.1227943   13.8442504   16.4446593
O   16.4108133   12.1313491   10.2097075
O   15.1190570   10.0272714   18.5288177
O   11.1290189   10.3657151   18.8545277
O    8.2990082   15.1419389   18.2749697
O   13.5562040   16.9047300    9.6341685
N   13.1459147   16.6060343   12.5358173
N   15.4965237   12.5285272   13.1505830
C   11.0143706   14.5319951   16.8417490
C   14.1170956   11.7921351   16.3321237
C   15.9650751   11.1214508   15.1360316
C   11.0953689   17.8358760   15.1810458
C   14.8723675   13.5645586   12.5930497
C   12.4922182   16.8341150   13.6409164
C   11.8319416   18.0811204   14.0187143
C   10.2214631   13.7490278   17.7741864
C   15.2977586   10.9475056   16.3546309
C   13.7878495   15.4471905   12.3009395
C   11.3070969   16.4441565   15.5508055
C   12.1288558   12.6755315   17.1472027
C   15.7878894   10.0968648   17.3722738
C   11.8793668   19.3617450   13.4496060
C   10.9226761   12.5554385   17.9638892
C   17.1459011   10.4155106   14.8643386
C    8.9442376   19.5584112   17.6118137
H    9.4508233   20.3839259   17.6632585
H    8.1255381   19.7310394   17.1214803
C   10.3528342   18.8531819   15.7951684
C   15.2363235   12.1179618   14.3756128
C   14.3593810   15.1246861   11.0045300
C   15.0539669   13.9171689   11.1762271
C   10.4278783   11.5483961   18.7950447
C   11.1261322   20.3329703   14.0524750
H   11.1215417   21.1866756   13.6859306
C   16.9661325    9.4174721   17.0587819
H   17.3312499    8.8448704   17.6938039
C   15.7139749   13.3261514   10.1105154
C   17.5980982    9.5544504   15.8707280
H   18.3676159    9.0557279   15.7163935
C   10.3763483   20.0885228   15.1826535
H    9.8702941   20.7785556   15.5427672
C   14.3384859   15.7631269    9.7584399
C    8.6321772   19.0697299   18.9670633
H    8.2624313   18.1755258   18.8979343
H    9.4568811   19.0078014   19.4734733
C    9.0115299   13.9744433   18.4301079
C   18.9503624    9.9285128   13.3515393
H   19.5718897    9.9701792   14.0942739
H   18.7477221    8.9961052   13.1746977
C    8.5615626   12.9870674   19.2757322
H    7.7659346   13.1239969   19.7387356
C   10.7456831    9.4004821   19.7917881
H   10.9055579    9.7274130   20.6904649
H    9.7994720    9.2055198   19.7001520
C   15.7161443    9.4532460   19.6551378
H   15.8120791    8.4994678   19.5104492
H   16.6046296    9.8276419   19.7676734
C    9.2425547   11.8006900   19.4622197
H    8.8995913   11.1624303   20.0457969
C   15.7371172   13.9977373    8.9128156
H   16.2209588   13.6411817    8.2022340
C   15.0565071   15.1953969    8.7359741
H   15.0882829   15.6210433    7.9096416
C   11.5619574    8.1528774   19.5377793
H   12.5043098    8.3841001   19.5056263
H   11.3162087    7.7750646   18.6776862
C   13.1587044   20.8344929   12.0573805
H   12.4076280   21.4172194   11.8660700
H   13.6124249   21.1860035   12.8386987
C   14.0485738   20.8689550   10.9657856
H   13.6168669   20.3965673   10.2359122
H   14.8240276   20.3434580   11.2165791
C    7.6674238   19.9281068   19.7290897
H    6.8486296   20.0094367   19.2146415
H    8.0457399   20.8148554   19.8223335
C   14.9650728    9.6661315   20.8608758
H   14.0426834    9.4279437   20.6759960
H   14.9800813   10.6185596   21.0489710
C    6.5831864   16.3007567   17.1086190
H    7.0632746   17.1373790   17.0218059
H    6.1201459   16.1594752   16.2678177
C   15.6267041   10.9876648   10.4400838
H   14.7328058   11.1713958   10.1105154
H   15.5578977   10.8648484   11.3998513
C   12.2346021   18.4933919    8.5301948
H   12.3991602   19.0594225    9.3002595
H   11.4025321   18.0184458    8.6893522
C   11.3324346    7.1381324   20.6132976
H   10.3858331    6.9355137   20.6534889
H   11.5874296    7.5230023   21.4653525
C   13.3497586   17.4870061    8.4273051
H   14.1617389   17.9288152    8.1331050
H   13.1190623   16.8089684    7.7713836
C   15.3510178    8.9895681   22.0601833
H   15.2307208    8.0388870   21.9122794
H   16.2998699    9.1391348   22.1904030
C   20.7262645   10.0357673   11.6361760
H   21.3901812   10.0388088   12.3435423
H   20.5674991    9.1104399   11.3950284
C   15.4689195    8.5757414   10.1908980
H   14.6112143    8.5534716    9.7391481
H   15.2768533    8.5751951   11.1426272
C   12.0829851    5.8709485   20.4187719
H   11.8791032    5.2653169   21.1357841
H   11.8295242    5.4733359   19.5827935
H   13.0251303    6.0559573   20.4139489
C   12.0693240   19.3428850    7.3485715
H   11.8390644   18.7693987    6.6026215
H   12.9319963   19.7392755    7.1492228
C   19.5528736   10.5502129   12.1522319
H   19.7093214   11.4844120   12.3564035
H   18.8886234   10.5224830   11.4448655
C   14.6614194    9.3375091   23.3286197
H   15.0088477    8.7948156   24.0408090
H   14.8113782   10.2638327   23.5295761
H   13.7189659    9.1785619   23.2337683
C    7.5527856   15.2880186   17.2066857
H    8.1550812   15.4029118   16.4559129
H    7.0928610   14.4446305   17.0684278
C   16.0262801    9.8303456    9.9079514
H   15.9623692    9.9403089    8.9465763
H   16.9727204    9.7545513   10.1105154
C   11.1206074   20.3871893    7.3935857
H   11.1446390   20.8764371    6.5688609
H   10.2432576   20.0172803    7.5205901
H   11.3280117   20.9770242    8.1218515
C   21.3083710   10.7266657   10.4561603
H   22.1006944   10.2640489   10.1732138
H   20.6691154   10.7306814    9.7407558
H   21.5324041   11.6307558   10.6908773
C    7.3328736   19.3970613   21.0891623
H    6.7146047   19.9920334   21.5216203
H    6.9345570   18.5284529   21.0055644
H    8.1344700   19.3338715   21.6132564
C   14.5263882   22.0774159   10.4416915
H   13.7586074   22.5934452   10.1523143
H   14.9380491   22.5671254   11.1699573
C   15.5040661   22.0465294    9.3082977
H   15.7196571   22.9447873    9.0478583
H   16.3037028   21.5946549    9.5880289
H   15.1165550   21.5805353    8.5639554
C    5.5565906   16.5132914   18.1182237
H    5.0851084   15.6754736   18.2532664
H    5.9936888   16.7367130   18.9542021
C    4.5198059   17.6033945   17.8095548
H    3.9077376   17.6809213   18.5442511
H    4.9675882   18.4417210   17.6761198
H    4.0372176   17.3707472   17.0137677
C   16.0664960    7.3789297    9.9240279
H   15.4648420    6.6645972   10.1458837
H   16.2879840    7.3334613    8.9915905
H   16.8669951    7.2979093   10.4481221
--
0 1
N   23.3407727   18.0422796    2.8601714
O   27.7018990   13.9718401   -0.8764912
O   24.7429076   12.9671791    3.7201038
N   23.2149693   20.0103236    0.9171647
H   23.7629108   19.3828942    1.1301785
N   26.7160501   16.7345581   -0.4424255
O   19.6624153   21.8835092    2.4007048
N   25.2314143   16.5759439    1.4447957
H   24.9075059   17.3713760    1.4050867
N   24.2907253   20.7329967   -1.1176388
N   25.2900559   18.6752617   -0.3681520
O   21.0020369   20.3881630    5.8667998
O   22.2937932   22.4922407   -2.4523104
O   26.2838313   22.1537970   -2.7780205
O   29.1138420   17.3775732   -2.1984624
O   23.8566462   15.6147821    6.4423388
N   24.2669355   15.9134778    3.5406900
N   21.9163265   19.9909849    2.9259243
C   26.3984796   17.9875170   -0.7652417
C   23.2957546   20.7273770   -0.2556165
C   21.4477751   21.3980613    0.9404757
C   26.3174813   14.6836361    0.8954615
C   22.5404827   18.9549535    3.4834576
C   24.9206320   15.6853971    2.4355909
C   25.5809086   14.4383916    2.0577929
C   27.1913871   18.7704843   -1.6976792
C   22.1150916   21.5720065   -0.2781236
C   23.6250007   17.0723216    3.7755677
C   26.1057532   16.0753556    0.5257018
C   25.2839944   19.8439806   -1.0706954
C   21.6249608   22.4226473   -1.2957665
C   25.5334834   13.1577671    2.6269013
C   26.4901741   19.9640736   -1.8873820
C   20.2669490   22.1040015    1.2121686
C   28.4686126   12.9611009   -1.5353064
H   27.9620269   12.1355862   -1.5867513
H   29.2873121   12.7884727   -1.0449730
C   27.0600160   13.6663302    0.2813389
C   22.1765267   20.4015503    1.7008945
C   23.0534692   17.3948260    5.0719773
C   22.3588833   18.6023432    4.9002802
C   26.9849719   20.9711160   -2.7185374
C   26.2867180   12.1865418    2.0240323
H   26.2913085   11.3328365    2.3905766
C   20.4467177   23.1020400   -0.9822746
H   20.0816003   23.6746416   -1.6172966
C   21.6988753   19.1933606    5.9659919
C   19.8147520   22.9650617    0.2057793
H   19.0452343   23.4637842    0.3601138
C   27.0365019   12.4309893    0.8938538
H   27.5425561   11.7409565    0.5337400
C   23.0743643   16.7563851    6.3180674
C   28.7806730   13.4497822   -2.8905560
H   29.1504189   14.3439863   -2.8214270
H   27.9559691   13.5117107   -3.3969660
C   28.4013203   18.5450687   -2.3536007
C   18.4624878   22.5909993    2.7249680
H   17.8409605   22.5493329    1.9822333
H   18.6651281   23.5234069    2.9018096
C   28.8512876   19.5324447   -3.1992249
H   29.6469156   19.3955152   -3.6622284
C   26.6671671   23.1190299   -3.7152808
H   26.5072922   22.7920991   -4.6139576
H   27.6133782   23.3139922   -3.6236447
C   21.6967059   23.0662661   -3.5786305
H   21.6007711   24.0200443   -3.4339420
H   20.8082206   22.6918702   -3.6911661
C   28.1702955   20.7188221   -3.3857124
H   28.5132588   21.3570818   -3.9692896
C   21.6757330   18.5217748    7.1636916
H   21.1918914   18.8783304    7.8742733
C   22.3563431   17.3241152    7.3405332
H   22.3245673   16.8984688    8.1668657
C   25.8508928   24.3666347   -3.4612720
H   24.9085404   24.1354120   -3.4291190
H   26.0966415   24.7444475   -2.6011789
C   24.2541458   11.6850192    4.0191268
H   25.0052222   11.1022927    4.2104373
H   23.8004253   11.3335086    3.2378086
C   23.3642764   11.6505571    5.1107217
H   23.7959832   12.1229447    5.8405951
H   22.5888226   12.1760541    4.8599282
C   29.7454264   12.5914053   -3.6525825
H   30.5642206   12.5100754   -3.1381342
H   29.3671103   11.7046567   -3.7458262
C   22.4477774   22.8533806   -4.7843686
H   23.3701668   23.0915684   -4.5994887
H   22.4327689   21.9009525   -4.9724637
C   30.8296638   16.2187554   -1.0321118
H   30.3495756   15.3821331   -0.9452986
H   31.2927043   16.3600369   -0.1913104
C   21.7861461   21.5318473    5.6364235
H   22.6800444   21.3481163    5.9659919
H   21.8549525   21.6546637    4.6766560
C   25.1782481   14.0261202    7.5463125
H   25.0136900   13.4600895    6.7762478
H   26.0103181   14.5010663    7.3871551
C   26.0804156   25.3813797   -4.5367904
H   27.0270171   25.5839984   -4.5769816
H   25.8254206   24.9965098   -5.3888452
C   24.0630916   15.0325060    7.6492022
H   23.2511113   14.5906969    7.9434022
H   24.2937879   15.7105437    8.3051237
C   22.0618324   23.5299440   -5.9836760
H   22.1821294   24.4806251   -5.8357721
H   21.1129802   23.3803773   -6.1138957
C   16.6865857   22.4837447    4.4403313
H   16.0226689   22.4807033    3.7329650
H   16.8453511   23.4090722    4.6814789
C   21.9439307   23.9437706    5.8856093
H   22.8016359   23.9660405    6.3373592
H   22.1359969   23.9443170    4.9338801
C   25.3298651   26.6485636   -4.3422646
H   25.5337470   27.2541952   -5.0592768
H   25.5833260   27.0461762   -3.5062862
H   24.3877199   26.4635548   -4.3374417
C   25.3435262   13.1766271    8.7279358
H   25.5737858   13.7501134    9.4738857
H   24.4808539   12.7802366    8.9272845
C   17.8599766   21.9692992    3.9242754
H   17.7035288   21.0351001    3.7201038
H   18.5242268   21.9970291    4.6316417
C   22.7514308   23.1820030   -7.2521124
H   22.4040025   23.7246965   -7.9643017
H   22.6014720   22.2556794   -7.4530688
H   23.6938843   23.3409501   -7.1572610
C   29.8600646   17.2314935   -1.1301785
H   29.2577690   17.1166003   -0.3794056
H   30.3199892   18.0748816   -0.9919205
C   21.3865701   22.6891665    6.1685558
H   21.4504810   22.5792032    7.1299310
H   20.4401298   22.7649608    5.9659919
C   26.2922428   12.1323228    8.6829216
H   26.2682112   11.6430750    9.5076464
H   27.1695925   12.5022318    8.5559172
H   26.0848385   11.5424879    7.9546558
C   16.1044792   21.7928464    5.6203469
H   15.3121558   22.2554632    5.9032935
H   16.7437348   21.7888307    6.3357515
H   15.8804461   20.8887563    5.3856299
C   30.0799766   13.1224508   -5.0126550
H   30.6982455   12.5274787   -5.4451130
H   30.4782932   13.9910592   -4.9290571
H   29.2783802   13.1856406   -5.5367491
C   22.8864620   10.4420962    5.6348158
H   23.6542428    9.9260669    5.9241929
H   22.4748011    9.9523867    4.9065500
C   21.9087841   10.4729827    6.7682096
H   21.6931931    9.5747248    7.0286490
H   21.1091474   10.9248572    6.4884783
H   22.2962952   10.9389767    7.5125519
C   31.8562596   16.0062207   -2.0417164
H   32.3277418   16.8440384   -2.1767591
H   31.4191614   15.7827991   -2.8776948
C   32.8930443   14.9161176   -1.7330475
H   33.5051126   14.8385908   -2.4677439
H   32.4452620   14.0777911   -1.5996125
H   33.3756326   15.1487649   -0.9372604
C   21.3463542   25.1405824    6.1524793
H   21.9480082   25.8549149    5.9306235
H   21.1248662   25.1860508    7.0849168
H   20.5458550   25.2216028    5.6283852
$end
$rem
jobtype sp
method PBE0 
basis 6-31G**
scf_guess fragmo
sym_ignore true
scf_print_frgm true
sts_dc trans
sts_trans_donor 1-6 
sts_trans_acceptor 1-6 
cis_n_roots 12
cis_singlets 1
cis_triplets 0
sts_dc_bsse 0
rpa 2
$end
--------------------------------------------------------------
 ----------------------------------------------------------------
             Standard Nuclear Orientation (Angstroms)
    I     Atom           X                Y                Z
 ----------------------------------------------------------------
    1      N      14.0720775000    14.4772325000    13.2163359000
    2      O       9.7109512000    18.5476720000    16.9529985000
    3      O      12.6699426000    19.5523330000    12.3564035000
    4      N      14.1978809000    12.5091885000    15.1593425000
    5      H      13.6499394000    13.1366178000    14.9463288000
    6      N      10.6968001000    15.7849540000    16.5189328000
    7      O      17.7504349000    10.6360029000    13.6758024000
    8      N      12.1814359000    15.9435682000    14.6317116000
    9      H      12.5053443000    15.1481361000    14.6714205000
   10      N      13.1221249000    11.7865154000    17.1941461000
   11      N      12.1227943000    13.8442504000    16.4446593000
   12      O      16.4108133000    12.1313491000    10.2097075000
   13      O      15.1190570000    10.0272714000    18.5288177000
   14      O      11.1290189000    10.3657151000    18.8545277000
   15      O       8.2990082000    15.1419389000    18.2749697000
   16      O      13.5562040000    16.9047300000     9.6341685000
   17      N      13.1459147000    16.6060343000    12.5358173000
   18      N      15.4965237000    12.5285272000    13.1505830000
   19      C      11.0143706000    14.5319951000    16.8417490000
   20      C      14.1170956000    11.7921351000    16.3321237000
   21      C      15.9650751000    11.1214508000    15.1360316000
   22      C      11.0953689000    17.8358760000    15.1810458000
   23      C      14.8723675000    13.5645586000    12.5930497000
   24      C      12.4922182000    16.8341150000    13.6409164000
   25      C      11.8319416000    18.0811204000    14.0187143000
   26      C      10.2214631000    13.7490278000    17.7741864000
   27      C      15.2977586000    10.9475056000    16.3546309000
   28      C      13.7878495000    15.4471905000    12.3009395000
   29      C      11.3070969000    16.4441565000    15.5508055000
   30      C      12.1288558000    12.6755315000    17.1472027000
   31      C      15.7878894000    10.0968648000    17.3722738000
   32      C      11.8793668000    19.3617450000    13.4496060000
   33      C      10.9226761000    12.5554385000    17.9638892000
   34      C      17.1459011000    10.4155106000    14.8643386000
   35      C       8.9442376000    19.5584112000    17.6118137000
   36      H       9.4508233000    20.3839259000    17.6632585000
   37      H       8.1255381000    19.7310394000    17.1214803000
   38      C      10.3528342000    18.8531819000    15.7951684000
   39      C      15.2363235000    12.1179618000    14.3756128000
   40      C      14.3593810000    15.1246861000    11.0045300000
   41      C      15.0539669000    13.9171689000    11.1762271000
   42      C      10.4278783000    11.5483961000    18.7950447000
   43      C      11.1261322000    20.3329703000    14.0524750000
   44      H      11.1215417000    21.1866756000    13.6859306000
   45      C      16.9661325000     9.4174721000    17.0587819000
   46      H      17.3312499000     8.8448704000    17.6938039000
   47      C      15.7139749000    13.3261514000    10.1105154000
   48      C      17.5980982000     9.5544504000    15.8707280000
   49      H      18.3676159000     9.0557279000    15.7163935000
   50      C      10.3763483000    20.0885228000    15.1826535000
   51      H       9.8702941000    20.7785556000    15.5427672000
   52      C      14.3384859000    15.7631269000     9.7584399000
   53      C       8.6321772000    19.0697299000    18.9670633000
   54      H       8.2624313000    18.1755258000    18.8979343000
   55      H       9.4568811000    19.0078014000    19.4734733000
   56      C       9.0115299000    13.9744433000    18.4301079000
   57      C      18.9503624000     9.9285128000    13.3515393000
   58      H      19.5718897000     9.9701792000    14.0942739000
   59      H      18.7477221000     8.9961052000    13.1746977000
   60      C       8.5615626000    12.9870674000    19.2757322000
   61      H       7.7659346000    13.1239969000    19.7387356000
   62      C      10.7456831000     9.4004821000    19.7917881000
   63      H      10.9055579000     9.7274130000    20.6904649000
   64      H       9.7994720000     9.2055198000    19.7001520000
   65      C      15.7161443000     9.4532460000    19.6551378000
   66      H      15.8120791000     8.4994678000    19.5104492000
   67      H      16.6046296000     9.8276419000    19.7676734000
   68      C       9.2425547000    11.8006900000    19.4622197000
   69      H       8.8995913000    11.1624303000    20.0457969000
   70      C      15.7371172000    13.9977373000     8.9128156000
   71      H      16.2209588000    13.6411817000     8.2022340000
   72      C      15.0565071000    15.1953969000     8.7359741000
   73      H      15.0882829000    15.6210433000     7.9096416000
   74      C      11.5619574000     8.1528774000    19.5377793000
   75      H      12.5043098000     8.3841001000    19.5056263000
   76      H      11.3162087000     7.7750646000    18.6776862000
   77      C      13.1587044000    20.8344929000    12.0573805000
   78      H      12.4076280000    21.4172194000    11.8660700000
   79      H      13.6124249000    21.1860035000    12.8386987000
   80      C      14.0485738000    20.8689550000    10.9657856000
   81      H      13.6168669000    20.3965673000    10.2359122000
   82      H      14.8240276000    20.3434580000    11.2165791000
   83      C       7.6674238000    19.9281068000    19.7290897000
   84      H       6.8486296000    20.0094367000    19.2146415000
   85      H       8.0457399000    20.8148554000    19.8223335000
   86      C      14.9650728000     9.6661315000    20.8608758000
   87      H      14.0426834000     9.4279437000    20.6759960000
   88      H      14.9800813000    10.6185596000    21.0489710000
   89      C       6.5831864000    16.3007567000    17.1086190000
   90      H       7.0632746000    17.1373790000    17.0218059000
   91      H       6.1201459000    16.1594752000    16.2678177000
   92      C      15.6267041000    10.9876648000    10.4400838000
   93      H      14.7328058000    11.1713958000    10.1105154000
   94      H      15.5578977000    10.8648484000    11.3998513000
   95      C      12.2346021000    18.4933919000     8.5301948000
   96      H      12.3991602000    19.0594225000     9.3002595000
   97      H      11.4025321000    18.0184458000     8.6893522000
   98      C      11.3324346000     7.1381324000    20.6132976000
   99      H      10.3858331000     6.9355137000    20.6534889000
  100      H      11.5874296000     7.5230023000    21.4653525000
  101      C      13.3497586000    17.4870061000     8.4273051000
  102      H      14.1617389000    17.9288152000     8.1331050000
  103      H      13.1190623000    16.8089684000     7.7713836000
  104      C      15.3510178000     8.9895681000    22.0601833000
  105      H      15.2307208000     8.0388870000    21.9122794000
  106      H      16.2998699000     9.1391348000    22.1904030000
  107      C      20.7262645000    10.0357673000    11.6361760000
  108      H      21.3901812000    10.0388088000    12.3435423000
  109      H      20.5674991000     9.1104399000    11.3950284000
  110      C      15.4689195000     8.5757414000    10.1908980000
  111      H      14.6112143000     8.5534716000     9.7391481000
  112      H      15.2768533000     8.5751951000    11.1426272000
  113      C      12.0829851000     5.8709485000    20.4187719000
  114      H      11.8791032000     5.2653169000    21.1357841000
  115      H      11.8295242000     5.4733359000    19.5827935000
  116      H      13.0251303000     6.0559573000    20.4139489000
  117      C      12.0693240000    19.3428850000     7.3485715000
  118      H      11.8390644000    18.7693987000     6.6026215000
  119      H      12.9319963000    19.7392755000     7.1492228000
  120      C      19.5528736000    10.5502129000    12.1522319000
  121      H      19.7093214000    11.4844120000    12.3564035000
  122      H      18.8886234000    10.5224830000    11.4448655000
  123      C      14.6614194000     9.3375091000    23.3286197000
  124      H      15.0088477000     8.7948156000    24.0408090000
  125      H      14.8113782000    10.2638327000    23.5295761000
  126      H      13.7189659000     9.1785619000    23.2337683000
  127      C       7.5527856000    15.2880186000    17.2066857000
  128      H       8.1550812000    15.4029118000    16.4559129000
  129      H       7.0928610000    14.4446305000    17.0684278000
  130      C      16.0262801000     9.8303456000     9.9079514000
  131      H      15.9623692000     9.9403089000     8.9465763000
  132      H      16.9727204000     9.7545513000    10.1105154000
  133      C      11.1206074000    20.3871893000     7.3935857000
  134      H      11.1446390000    20.8764371000     6.5688609000
  135      H      10.2432576000    20.0172803000     7.5205901000
  136      H      11.3280117000    20.9770242000     8.1218515000
  137      C      21.3083710000    10.7266657000    10.4561603000
  138      H      22.1006944000    10.2640489000    10.1732138000
  139      H      20.6691154000    10.7306814000     9.7407558000
  140      H      21.5324041000    11.6307558000    10.6908773000
  141      C       7.3328736000    19.3970613000    21.0891623000
  142      H       6.7146047000    19.9920334000    21.5216203000
  143      H       6.9345570000    18.5284529000    21.0055644000
  144      H       8.1344700000    19.3338715000    21.6132564000
  145      C      14.5263882000    22.0774159000    10.4416915000
  146      H      13.7586074000    22.5934452000    10.1523143000
  147      H      14.9380491000    22.5671254000    11.1699573000
  148      C      15.5040661000    22.0465294000     9.3082977000
  149      H      15.7196571000    22.9447873000     9.0478583000
  150      H      16.3037028000    21.5946549000     9.5880289000
  151      H      15.1165550000    21.5805353000     8.5639554000
  152      C       5.5565906000    16.5132914000    18.1182237000
  153      H       5.0851084000    15.6754736000    18.2532664000
  154      H       5.9936888000    16.7367130000    18.9542021000
  155      C       4.5198059000    17.6033945000    17.8095548000
  156      H       3.9077376000    17.6809213000    18.5442511000
  157      H       4.9675882000    18.4417210000    17.6761198000
  158      H       4.0372176000    17.3707472000    17.0137677000
  159      C      16.0664960000     7.3789297000     9.9240279000
  160      H      15.4648420000     6.6645972000    10.1458837000
  161      H      16.2879840000     7.3334613000     8.9915905000
  162      H      16.8669951000     7.2979093000    10.4481221000
  163      N      23.3407727000    18.0422796000     2.8601714000
  164      O      27.7018990000    13.9718401000    -0.8764912000
  165      O      24.7429076000    12.9671791000     3.7201038000
  166      N      23.2149693000    20.0103236000     0.9171647000
  167      H      23.7629108000    19.3828942000     1.1301785000
  168      N      26.7160501000    16.7345581000    -0.4424255000
  169      O      19.6624153000    21.8835092000     2.4007048000
  170      N      25.2314143000    16.5759439000     1.4447957000
  171      H      24.9075059000    17.3713760000     1.4050867000
  172      N      24.2907253000    20.7329967000    -1.1176388000
  173      N      25.2900559000    18.6752617000    -0.3681520000
  174      O      21.0020369000    20.3881630000     5.8667998000
  175      O      22.2937932000    22.4922407000    -2.4523104000
  176      O      26.2838313000    22.1537970000    -2.7780205000
  177      O      29.1138420000    17.3775732000    -2.1984624000
  178      O      23.8566462000    15.6147821000     6.4423388000
  179      N      24.2669355000    15.9134778000     3.5406900000
  180      N      21.9163265000    19.9909849000     2.9259243000
  181      C      26.3984796000    17.9875170000    -0.7652417000
  182      C      23.2957546000    20.7273770000    -0.2556165000
  183      C      21.4477751000    21.3980613000     0.9404757000
  184      C      26.3174813000    14.6836361000     0.8954615000
  185      C      22.5404827000    18.9549535000     3.4834576000
  186      C      24.9206320000    15.6853971000     2.4355909000
  187      C      25.5809086000    14.4383916000     2.0577929000
  188      C      27.1913871000    18.7704843000    -1.6976792000
  189      C      22.1150916000    21.5720065000    -0.2781236000
  190      C      23.6250007000    17.0723216000     3.7755677000
  191      C      26.1057532000    16.0753556000     0.5257018000
  192      C      25.2839944000    19.8439806000    -1.0706954000
  193      C      21.6249608000    22.4226473000    -1.2957665000
  194      C      25.5334834000    13.1577671000     2.6269013000
  195      C      26.4901741000    19.9640736000    -1.8873820000
  196      C      20.2669490000    22.1040015000     1.2121686000
  197      C      28.4686126000    12.9611009000    -1.5353064000
  198      H      27.9620269000    12.1355862000    -1.5867513000
  199      H      29.2873121000    12.7884727000    -1.0449730000
  200      C      27.0600160000    13.6663302000     0.2813389000
  201      C      22.1765267000    20.4015503000     1.7008945000
  202      C      23.0534692000    17.3948260000     5.0719773000
  203      C      22.3588833000    18.6023432000     4.9002802000
  204      C      26.9849719000    20.9711160000    -2.7185374000
  205      C      26.2867180000    12.1865418000     2.0240323000
  206      H      26.2913085000    11.3328365000     2.3905766000
  207      C      20.4467177000    23.1020400000    -0.9822746000
  208      H      20.0816003000    23.6746416000    -1.6172966000
  209      C      21.6988753000    19.1933606000     5.9659919000
  210      C      19.8147520000    22.9650617000     0.2057793000
  211      H      19.0452343000    23.4637842000     0.3601138000
  212      C      27.0365019000    12.4309893000     0.8938538000
  213      H      27.5425561000    11.7409565000     0.5337400000
  214      C      23.0743643000    16.7563851000     6.3180674000
  215      C      28.7806730000    13.4497822000    -2.8905560000
  216      H      29.1504189000    14.3439863000    -2.8214270000
  217      H      27.9559691000    13.5117107000    -3.3969660000
  218      C      28.4013203000    18.5450687000    -2.3536007000
  219      C      18.4624878000    22.5909993000     2.7249680000
  220      H      17.8409605000    22.5493329000     1.9822333000
  221      H      18.6651281000    23.5234069000     2.9018096000
  222      C      28.8512876000    19.5324447000    -3.1992249000
  223      H      29.6469156000    19.3955152000    -3.6622284000
  224      C      26.6671671000    23.1190299000    -3.7152808000
  225      H      26.5072922000    22.7920991000    -4.6139576000
  226      H      27.6133782000    23.3139922000    -3.6236447000
  227      C      21.6967059000    23.0662661000    -3.5786305000
  228      H      21.6007711000    24.0200443000    -3.4339420000
  229      H      20.8082206000    22.6918702000    -3.6911661000
  230      C      28.1702955000    20.7188221000    -3.3857124000
  231      H      28.5132588000    21.3570818000    -3.9692896000
  232      C      21.6757330000    18.5217748000     7.1636916000
  233      H      21.1918914000    18.8783304000     7.8742733000
  234      C      22.3563431000    17.3241152000     7.3405332000
  235      H      22.3245673000    16.8984688000     8.1668657000
  236      C      25.8508928000    24.3666347000    -3.4612720000
  237      H      24.9085404000    24.1354120000    -3.4291190000
  238      H      26.0966415000    24.7444475000    -2.6011789000
  239      C      24.2541458000    11.6850192000     4.0191268000
  240      H      25.0052222000    11.1022927000     4.2104373000
  241      H      23.8004253000    11.3335086000     3.2378086000
  242      C      23.3642764000    11.6505571000     5.1107217000
  243      H      23.7959832000    12.1229447000     5.8405951000
  244      H      22.5888226000    12.1760541000     4.8599282000
  245      C      29.7454264000    12.5914053000    -3.6525825000
  246      H      30.5642206000    12.5100754000    -3.1381342000
  247      H      29.3671103000    11.7046567000    -3.7458262000
  248      C      22.4477774000    22.8533806000    -4.7843686000
  249      H      23.3701668000    23.0915684000    -4.5994887000
  250      H      22.4327689000    21.9009525000    -4.9724637000
  251      C      30.8296638000    16.2187554000    -1.0321118000
  252      H      30.3495756000    15.3821331000    -0.9452986000
  253      H      31.2927043000    16.3600369000    -0.1913104000
  254      C      21.7861461000    21.5318473000     5.6364235000
  255      H      22.6800444000    21.3481163000     5.9659919000
  256      H      21.8549525000    21.6546637000     4.6766560000
  257      C      25.1782481000    14.0261202000     7.5463125000
  258      H      25.0136900000    13.4600895000     6.7762478000
  259      H      26.0103181000    14.5010663000     7.3871551000
  260      C      26.0804156000    25.3813797000    -4.5367904000
  261      H      27.0270171000    25.5839984000    -4.5769816000
  262      H      25.8254206000    24.9965098000    -5.3888452000
  263      C      24.0630916000    15.0325060000     7.6492022000
  264      H      23.2511113000    14.5906969000     7.9434022000
  265      H      24.2937879000    15.7105437000     8.3051237000
  266      C      22.0618324000    23.5299440000    -5.9836760000
  267      H      22.1821294000    24.4806251000    -5.8357721000
  268      H      21.1129802000    23.3803773000    -6.1138957000
  269      C      16.6865857000    22.4837447000     4.4403313000
  270      H      16.0226689000    22.4807033000     3.7329650000
  271      H      16.8453511000    23.4090722000     4.6814789000
  272      C      21.9439307000    23.9437706000     5.8856093000
  273      H      22.8016359000    23.9660405000     6.3373592000
  274      H      22.1359969000    23.9443170000     4.9338801000
  275      C      25.3298651000    26.6485636000    -4.3422646000
  276      H      25.5337470000    27.2541952000    -5.0592768000
  277      H      25.5833260000    27.0461762000    -3.5062862000
  278      H      24.3877199000    26.4635548000    -4.3374417000
  279      C      25.3435262000    13.1766271000     8.7279358000
  280      H      25.5737858000    13.7501134000     9.4738857000
  281      H      24.4808539000    12.7802366000     8.9272845000
  282      C      17.8599766000    21.9692992000     3.9242754000
  283      H      17.7035288000    21.0351001000     3.7201038000
  284      H      18.5242268000    21.9970291000     4.6316417000
  285      C      22.7514308000    23.1820030000    -7.2521124000
  286      H      22.4040025000    23.7246965000    -7.9643017000
  287      H      22.6014720000    22.2556794000    -7.4530688000
  288      H      23.6938843000    23.3409501000    -7.1572610000
  289      C      29.8600646000    17.2314935000    -1.1301785000
  290      H      29.2577690000    17.1166003000    -0.3794056000
  291      H      30.3199892000    18.0748816000    -0.9919205000
  292      C      21.3865701000    22.6891665000     6.1685558000
  293      H      21.4504810000    22.5792032000     7.1299310000
  294      H      20.4401298000    22.7649608000     5.9659919000
  295      C      26.2922428000    12.1323228000     8.6829216000
  296      H      26.2682112000    11.6430750000     9.5076464000
  297      H      27.1695925000    12.5022318000     8.5559172000
  298      H      26.0848385000    11.5424879000     7.9546558000
  299      C      16.1044792000    21.7928464000     5.6203469000
  300      H      15.3121558000    22.2554632000     5.9032935000
  301      H      16.7437348000    21.7888307000     6.3357515000
  302      H      15.8804461000    20.8887563000     5.3856299000
  303      C      30.0799766000    13.1224508000    -5.0126550000
  304      H      30.6982455000    12.5274787000    -5.4451130000
  305      H      30.4782932000    13.9910592000    -4.9290571000
  306      H      29.2783802000    13.1856406000    -5.5367491000
  307      C      22.8864620000    10.4420962000     5.6348158000
  308      H      23.6542428000     9.9260669000     5.9241929000
  309      H      22.4748011000     9.9523867000     4.9065500000
  310      C      21.9087841000    10.4729827000     6.7682096000
  311      H      21.6931931000     9.5747248000     7.0286490000
  312      H      21.1091474000    10.9248572000     6.4884783000
  313      H      22.2962952000    10.9389767000     7.5125519000
  314      C      31.8562596000    16.0062207000    -2.0417164000
  315      H      32.3277418000    16.8440384000    -2.1767591000
  316      H      31.4191614000    15.7827991000    -2.8776948000
  317      C      32.8930443000    14.9161176000    -1.7330475000
  318      H      33.5051126000    14.8385908000    -2.4677439000
  319      H      32.4452620000    14.0777911000    -1.5996125000
  320      H      33.3756326000    15.1487649000    -0.9372604000
  321      C      21.3463542000    25.1405824000     6.1524793000
  322      H      21.9480082000    25.8549149000     5.9306235000
  323      H      21.1248662000    25.1860508000     7.0849168000
  324      H      20.5458550000    25.2216028000     5.6283852000
 ----------------------------------------------------------------
 Nuclear Repulsion Energy =       38277.79043826 hartrees
 There are      586 alpha and      586 beta electrons
 Requested basis set is 6-31G(d,p)
 There are 1132 shells and 3220 basis functions

 Total QAlloc Memory Limit   2000 MB
 Mega-Array Size       188 MB
 MEM_STATIC part       192 MB

 A cutoff of  1.0D-12 yielded  73652 shell pairs
 There are    635906 function pairs
 Smallest overlap matrix eigenvalue = 1.72E-04

 Scale SEOQF with 1.000000e-03/1.000000e-03/1.000000e-03

 Standard Electronic Orientation quadrupole field applied
 Nucleus-field energy     =     0.0000002448 hartrees
 Can only be proccessed by the old fragmo guess code
 Guess MOs from converged MOs on fragments

QCSCRATCH   is /scratch/sanghita
QCFILEPREF  is /scratch/sanghita/qchem213309/

-----------------------------------------------------------------
 SCF on fragment 1 out of 2 in state 1
-----------------------------------------------------------------

/home/chance/software/ccats2023/exe/qcprog.exe /scratch/sanghita/qchem213309/Frg1s1.input /scratch/sanghita/qchem213309/Frg1s1/
                  Welcome to Q-Chem
     A Quantum Leap Into The Future Of Chemistry


 Q-Chem 6.1 (devel), Q-Chem, Inc., Pleasanton, CA (2022)

 E. Epifanovsky,  A. T. B. Gilbert,  Xintian Feng,  Joonho Lee,  Yuezhi Mao,  
 N. Mardirossian,  P. Pokhilko,  A. White,  M. Wormit,  M. P. Coons,  
 A. L. Dempwolff,  Zhengting Gan,  D. Hait,  P. R. Horn,  L. D. Jacobson,  
 I. Kaliman,  J. Kussmann,  A. W. Lange,  Ka Un Lao,  D. S. Levine,  Jie Liu,  
 S. C. McKenzie,  A. F. Morrison,  K. Nanda,  F. Plasser,  D. R. Rehn,  
 M. L. Vidal,  Zhi-Qiang You,  Ying Zhu,  B. Alam,  B. Albrecht,  
 A. Aldossary,  E. Alguire,  J. H. Andersen,  V. Athavale,  D. Barton,  
 K. Begam,  A. Behn,  N. Bellonzi,  Y. A. Bernard,  E. J. Berquist,  
 H. Burton,  A. Carreras,  K. Carter-Fenk,  Mathew Chow,  Romit Chakraborty,  
 Chandrima Chakravarty,  Junhan Chen,  A. D. Chien,  K. D. Closser,  
 V. Cofer-Shabica,  L. Cunha,  S. Dasgupta,  Jia Deng,  M. de Wergifosse,  
 M. Diedenhofen,  Hainam Do,  S. Ehlert,  Po-Tung Fang,  S. Fatehi,  
 Qingguo Feng,  T. Friedhoff,  Thomas Froitzheim,  B. Ganoe,  J. Gayvert,  
 Qinghui Ge,  G. Gidofalvi,  M. Goldey,  Montgomery Gray,  J. Gomes,  
 C. Gonzalez-Espinoza,  S. Gulania,  A. Gunina,  J. A. Gyamfi,  
 M. W. D. Hanson-Heine,  P. H. P. Harbach,  A. W. Hauser,  M. F. Herbst,  
 M. Hernandez Vera,  M. Hodecker,  Z. C. Holden,  S. Houck,  Xunkun Huang,  
 Kerwin Hui,  B. C. Huynh,  K. Ikeda,  M. Ivanov,  Hyunjun Ji,  Zuxin Jin,  
 Hanjie Jiang,  Subrata Jana,  B. Kaduk,  S. Kaehler,  R. Kang,  
 K. Khistyaev,  Jaehoon Kim,  Yongbin Kim,  P. Klunzinger,  Z. Koczor-Benda,  
 Joong Hoon Koh,  D. Kosenkov,  Saikiran Kotaru,  L. Koulias,  T. Kowalczyk,  
 C. M. Krauter,  K. Kue,  A. Kunitsa,  T. Kus,  A. Landau,  K. V. Lawler,  
 D. Lefrancois,  S. Lehtola,  Rain Li,  Shaozhi Li,  Yi-Pei Li,  
 Jiashu Liang,  M. Liebenthal,  Hung-Hsuan Lin,  You-Sheng Lin,  Fenglai Liu,  
 Kuan-Yu Liu,  M. Loipersberger,  A. Luenser,  C. Malbon,  A. Manjanath,  
 P. Manohar,  E. Mansoor,  S. F. Manzer,  Shan-Ping Mao,  A. V. Marenich,  
 T. Markovich,  S. Mason,  F. Matz,  S. A. Maurer,  P. F. McLaughlin,  
 M. F. S. J. Menger,  J.-M. Mewes,  S. A. Mewes,  P. Morgante,  
 Mohammad Mostafanejad,  J. W. Mullinax,  K. J. Oosterbaan,  G. Paran,  
 V. Parravicini,  Alexander C. Paul,  Suranjan K. Paul,  F. Pavosevic,  
 Zheng Pei,  S. Prager,  E. I. Proynov,  E. Ramos,  B. Rana,  A. E. Rask,  
 A. Rettig,  R. M. Richard,  F. Rob,  E. Rossomme,  T. Scheele,  M. Scheurer,  
 M. Schneider,  P. E. Schneider,  N. Sergueev,  S. M. Sharada,  
 Hengyuan Shen,  W. Skomorowski,  D. W. Small,  C. J. Stein,  Yingli Su,  
 Yu-Chuan Su,  E. J. Sundstrom,  Zhen Tao,  J. Thirman,  Hung-Yi Tsai,  
 T. Tsuchimochi,  N. M. Tubman,  C. Utku,  S. P. Veccham,  O. Vydrov,  
 J. Wenzel,  Jonathan Wong,  J. Witte,  A. Yamada,  Chou-Hsun Yang,  Kun Yao,  
 S. Yeganeh,  S. R. Yost,  A. Zech,  F. Zeller,  Igor Ying Zhang,  
 Xing Zhang,  Yu Zhang,  D. Zuev,  A. Aspuru-Guzik,  A. T. Bell,  
 N. A. Besley,  K. B. Bravaya,  B. R. Brooks,  D. Casanova,  Jeng-Da Chai,  
 Hsing-Ta Chen,  S. Coriani,  C. J. Cramer,  A. E. DePrince, III,  
 R. A. DiStasio Jr.,  A. Dreuw,  B. D. Dunietz,  T. R. Furlani,  
 W. A. Goddard III,  S. Grimme,  S. Hammes-Schiffer,  T. Head-Gordon,  
 W. J. Hehre,  Chao-Ping Hsu,  T.-C. Jagau,  Yousung Jung,  A. Klamt,  
 Jing Kong,  D. S. Lambrecht,  Xiangyuan Li,  WanZhen Liang,  N. J. Mayhall,  
 C. W. McCurdy,  J. B. Neaton,  T. Neudecker,  C. Ochsenfeld,  
 J. A. Parkhill,  R. Peverati,  V. A. Rassolov,  Haisheng Ren,  Yihan Shao,  
 L. V. Slipchenko,  R. P. Steele,  J. E. Subotnik,  A. J. W. Thom,  
 A. Tkatchenko,  D. G. Truhlar,  T. Van Voorhis,  Fan Wang,  
 T. A. Wesolowski,  K. B. Whaley,  H. L. Woodcock III,  P. M. Zimmerman,  
 S. Faraji,  P. M. W. Gill,  M. Head-Gordon,  J. M. Herbert,  A. I. Krylov

 Contributors to earlier versions of Q-Chem not listed above: 
 R. D. Adamson,  B. Austin,  R. Baer,  J. Baker,  G. J. O. Beran,  
 K. Brandhorst,  S. T. Brown,  E. F. C. Byrd,  Arup K. Chakraborty,  
 G. K. L. Chan,  Chun-Min Chang,  Yunqing Chen,  C.-L. Cheng,  
 Siu Hung Chien,  D. M. Chipman,  D. L. Crittenden,  H. Dachsel,  
 R. J. Doerksen,  A. D. Dutoi,  R. G. Edgar,  J. Fosso-Tande,  
 L. Fusti-Molnar,  D. Ghosh,  A. Ghysels,  A. Golubeva-Zadorozhnaya,  
 J. Gonthier,  M. S. Gordon,  S. R. Gwaltney,  G. Hawkins,  J. E. Herr,  
 A. Heyden,  S. Hirata,  E. G. Hohenstein,  G. Kedziora,  F. J. Keil,  
 C. Kelley,  Jihan Kim,  R. A. King,  R. Z. Khaliullin,  P. P. Korambath,  
 W. Kurlancheek,  A. Laurent,  A. M. Lee,  M. S. Lee,  S. V. Levchenko,  
 Ching Yeh Lin,  D. Liotard,  E. Livshits,  R. C. Lochan,  I. Lotan,  
 L. A. Martinez-Martinez,  P. E. Maslen,  N. Nair,  D. P. O'Neill,  
 D. Neuhauser,  E. Neuscamman,  C. M. Oana,  R. Olivares-Amaya,  R. Olson,  
 T. M. Perrine,  B. Peters,  P. A. Pieniazek,  A. Prociuk,  Y. M. Rhee,  
 J. Ritchie,  M. A. Rohrdanz,  E. Rosta,  N. J. Russ,  H. F. Schaefer III,  
 M. W. Schmidt,  N. E. Schultz,  S. Sharma,  N. Shenvi,  C. D. Sherrill,  
 A. C. Simmonett,  A. Sodt,  T. Stein,  D. Stuck,  K. S. Thanthiriwatte,  
 V. Vanovschi,  L. Vogt,  Tao Wang,  A. Warshel,  M. A. Watson,  
 C. F. Williams,  Q. Wu,  X. Xu,  Jun Yang,  W. Zhang,  Yan Zhao

   Please cite Q-Chem as follows:
  "Software for the frontiers of quantum chemistry:
   An overview of developments in the Q-Chem 5 package"
   J. Chem. Phys. 155, 084801 (2021)
   https://doi.org/10.1063/5.0055522 (open access)

 Q-Chem 6.1.0 for Intel X86 EM64T Linux

 Parts of Q-Chem use Armadillo 9.900.5 (Nocturnal Misbehaviour).
 http://arma.sourceforge.net/

 Q-Chem begins on Tue Feb 11 11:11:33 2025  

 Host: n083.cluster
0

     Scratch files written to /scratch/sanghita/qchem213309/Frg1s1//
 Processing $rem in /home/chance/software/ccats2023/config/preferences:
 Processing $rem in /home/sanghita/.qchemrc:

 Checking the input file for inconsistencies... 	...done.

--------------------------------------------------------------
User input:
--------------------------------------------------------------
$molecule
0 1
 7	14.0720775000	14.4772325000	13.2163359000
 8	9.7109512000	18.5476720000	16.9529985000
 8	12.6699426000	19.5523330000	12.3564035000
 7	14.1978809000	12.5091885000	15.1593425000
 1	13.6499394000	13.1366178000	14.9463288000
 7	10.6968001000	15.7849540000	16.5189328000
 8	17.7504349000	10.6360029000	13.6758024000
 7	12.1814359000	15.9435682000	14.6317116000
 1	12.5053443000	15.1481361000	14.6714205000
 7	13.1221249000	11.7865154000	17.1941461000
 7	12.1227943000	13.8442504000	16.4446593000
 8	16.4108133000	12.1313491000	10.2097075000
 8	15.1190570000	10.0272714000	18.5288177000
 8	11.1290189000	10.3657151000	18.8545277000
 8	8.2990082000	15.1419389000	18.2749697000
 8	13.5562040000	16.9047300000	9.6341685000
 7	13.1459147000	16.6060343000	12.5358173000
 7	15.4965237000	12.5285272000	13.1505830000
 6	11.0143706000	14.5319951000	16.8417490000
 6	14.1170956000	11.7921351000	16.3321237000
 6	15.9650751000	11.1214508000	15.1360316000
 6	11.0953689000	17.8358760000	15.1810458000
 6	14.8723675000	13.5645586000	12.5930497000
 6	12.4922182000	16.8341150000	13.6409164000
 6	11.8319416000	18.0811204000	14.0187143000
 6	10.2214631000	13.7490278000	17.7741864000
 6	15.2977586000	10.9475056000	16.3546309000
 6	13.7878495000	15.4471905000	12.3009395000
 6	11.3070969000	16.4441565000	15.5508055000
 6	12.1288558000	12.6755315000	17.1472027000
 6	15.7878894000	10.0968648000	17.3722738000
 6	11.8793668000	19.3617450000	13.4496060000
 6	10.9226761000	12.5554385000	17.9638892000
 6	17.1459011000	10.4155106000	14.8643386000
 6	8.9442376000	19.5584112000	17.6118137000
 1	9.4508233000	20.3839259000	17.6632585000
 1	8.1255381000	19.7310394000	17.1214803000
 6	10.3528342000	18.8531819000	15.7951684000
 6	15.2363235000	12.1179618000	14.3756128000
 6	14.3593810000	15.1246861000	11.0045300000
 6	15.0539669000	13.9171689000	11.1762271000
 6	10.4278783000	11.5483961000	18.7950447000
 6	11.1261322000	20.3329703000	14.0524750000
 1	11.1215417000	21.1866756000	13.6859306000
 6	16.9661325000	9.4174721000	17.0587819000
 1	17.3312499000	8.8448704000	17.6938039000
 6	15.7139749000	13.3261514000	10.1105154000
 6	17.5980982000	9.5544504000	15.8707280000
 1	18.3676159000	9.0557279000	15.7163935000
 6	10.3763483000	20.0885228000	15.1826535000
 1	9.8702941000	20.7785556000	15.5427672000
 6	14.3384859000	15.7631269000	9.7584399000
 6	8.6321772000	19.0697299000	18.9670633000
 1	8.2624313000	18.1755258000	18.8979343000
 1	9.4568811000	19.0078014000	19.4734733000
 6	9.0115299000	13.9744433000	18.4301079000
 6	18.9503624000	9.9285128000	13.3515393000
 1	19.5718897000	9.9701792000	14.0942739000
 1	18.7477221000	8.9961052000	13.1746977000
 6	8.5615626000	12.9870674000	19.2757322000
 1	7.7659346000	13.1239969000	19.7387356000
 6	10.7456831000	9.4004821000	19.7917881000
 1	10.9055579000	9.7274130000	20.6904649000
 1	9.7994720000	9.2055198000	19.7001520000
 6	15.7161443000	9.4532460000	19.6551378000
 1	15.8120791000	8.4994678000	19.5104492000
 1	16.6046296000	9.8276419000	19.7676734000
 6	9.2425547000	11.8006900000	19.4622197000
 1	8.8995913000	11.1624303000	20.0457969000
 6	15.7371172000	13.9977373000	8.9128156000
 1	16.2209588000	13.6411817000	8.2022340000
 6	15.0565071000	15.1953969000	8.7359741000
 1	15.0882829000	15.6210433000	7.9096416000
 6	11.5619574000	8.1528774000	19.5377793000
 1	12.5043098000	8.3841001000	19.5056263000
 1	11.3162087000	7.7750646000	18.6776862000
 6	13.1587044000	20.8344929000	12.0573805000
 1	12.4076280000	21.4172194000	11.8660700000
 1	13.6124249000	21.1860035000	12.8386987000
 6	14.0485738000	20.8689550000	10.9657856000
 1	13.6168669000	20.3965673000	10.2359122000
 1	14.8240276000	20.3434580000	11.2165791000
 6	7.6674238000	19.9281068000	19.7290897000
 1	6.8486296000	20.0094367000	19.2146415000
 1	8.0457399000	20.8148554000	19.8223335000
 6	14.9650728000	9.6661315000	20.8608758000
 1	14.0426834000	9.4279437000	20.6759960000
 1	14.9800813000	10.6185596000	21.0489710000
 6	6.5831864000	16.3007567000	17.1086190000
 1	7.0632746000	17.1373790000	17.0218059000
 1	6.1201459000	16.1594752000	16.2678177000
 6	15.6267041000	10.9876648000	10.4400838000
 1	14.7328058000	11.1713958000	10.1105154000
 1	15.5578977000	10.8648484000	11.3998513000
 6	12.2346021000	18.4933919000	8.5301948000
 1	12.3991602000	19.0594225000	9.3002595000
 1	11.4025321000	18.0184458000	8.6893522000
 6	11.3324346000	7.1381324000	20.6132976000
 1	10.3858331000	6.9355137000	20.6534889000
 1	11.5874296000	7.5230023000	21.4653525000
 6	13.3497586000	17.4870061000	8.4273051000
 1	14.1617389000	17.9288152000	8.1331050000
 1	13.1190623000	16.8089684000	7.7713836000
 6	15.3510178000	8.9895681000	22.0601833000
 1	15.2307208000	8.0388870000	21.9122794000
 1	16.2998699000	9.1391348000	22.1904030000
 6	20.7262645000	10.0357673000	11.6361760000
 1	21.3901812000	10.0388088000	12.3435423000
 1	20.5674991000	9.1104399000	11.3950284000
 6	15.4689195000	8.5757414000	10.1908980000
 1	14.6112143000	8.5534716000	9.7391481000
 1	15.2768533000	8.5751951000	11.1426272000
 6	12.0829851000	5.8709485000	20.4187719000
 1	11.8791032000	5.2653169000	21.1357841000
 1	11.8295242000	5.4733359000	19.5827935000
 1	13.0251303000	6.0559573000	20.4139489000
 6	12.0693240000	19.3428850000	7.3485715000
 1	11.8390644000	18.7693987000	6.6026215000
 1	12.9319963000	19.7392755000	7.1492228000
 6	19.5528736000	10.5502129000	12.1522319000
 1	19.7093214000	11.4844120000	12.3564035000
 1	18.8886234000	10.5224830000	11.4448655000
 6	14.6614194000	9.3375091000	23.3286197000
 1	15.0088477000	8.7948156000	24.0408090000
 1	14.8113782000	10.2638327000	23.5295761000
 1	13.7189659000	9.1785619000	23.2337683000
 6	7.5527856000	15.2880186000	17.2066857000
 1	8.1550812000	15.4029118000	16.4559129000
 1	7.0928610000	14.4446305000	17.0684278000
 6	16.0262801000	9.8303456000	9.9079514000
 1	15.9623692000	9.9403089000	8.9465763000
 1	16.9727204000	9.7545513000	10.1105154000
 6	11.1206074000	20.3871893000	7.3935857000
 1	11.1446390000	20.8764371000	6.5688609000
 1	10.2432576000	20.0172803000	7.5205901000
 1	11.3280117000	20.9770242000	8.1218515000
 6	21.3083710000	10.7266657000	10.4561603000
 1	22.1006944000	10.2640489000	10.1732138000
 1	20.6691154000	10.7306814000	9.7407558000
 1	21.5324041000	11.6307558000	10.6908773000
 6	7.3328736000	19.3970613000	21.0891623000
 1	6.7146047000	19.9920334000	21.5216203000
 1	6.9345570000	18.5284529000	21.0055644000
 1	8.1344700000	19.3338715000	21.6132564000
 6	14.5263882000	22.0774159000	10.4416915000
 1	13.7586074000	22.5934452000	10.1523143000
 1	14.9380491000	22.5671254000	11.1699573000
 6	15.5040661000	22.0465294000	9.3082977000
 1	15.7196571000	22.9447873000	9.0478583000
 1	16.3037028000	21.5946549000	9.5880289000
 1	15.1165550000	21.5805353000	8.5639554000
 6	5.5565906000	16.5132914000	18.1182237000
 1	5.0851084000	15.6754736000	18.2532664000
 1	5.9936888000	16.7367130000	18.9542021000
 6	4.5198059000	17.6033945000	17.8095548000
 1	3.9077376000	17.6809213000	18.5442511000
 1	4.9675882000	18.4417210000	17.6761198000
 1	4.0372176000	17.3707472000	17.0137677000
 6	16.0664960000	7.3789297000	9.9240279000
 1	15.4648420000	6.6645972000	10.1458837000
 1	16.2879840000	7.3334613000	8.9915905000
 1	16.8669951000	7.2979093000	10.4481221000
$end

$rem
METHOD		PBE0
BASIS		6-31G**
SYM_IGNORE		TRUE
SCF_PRINT_FRGM		TRUE
CIS_N_ROOTS		12
CIS_SINGLETS		1
CIS_TRIPLETS		0
RPA		2
!required keywords
JOBTYPE		SP
SYM_IGNORE		TRUE
SUBSYSTEM		TRUE
SAVE_SUBSYSTEM		TRUE
GEN_SCFMAN		0
ECP		0
$end
--------------------------------------------------------------
 ----------------------------------------------------------------
             Standard Nuclear Orientation (Angstroms)
    I     Atom           X                Y                Z
 ----------------------------------------------------------------
    1      N      14.0720775000    14.4772325000    13.2163359000
    2      O       9.7109512000    18.5476720000    16.9529985000
    3      O      12.6699426000    19.5523330000    12.3564035000
    4      N      14.1978809000    12.5091885000    15.1593425000
    5      H      13.6499394000    13.1366178000    14.9463288000
    6      N      10.6968001000    15.7849540000    16.5189328000
    7      O      17.7504349000    10.6360029000    13.6758024000
    8      N      12.1814359000    15.9435682000    14.6317116000
    9      H      12.5053443000    15.1481361000    14.6714205000
   10      N      13.1221249000    11.7865154000    17.1941461000
   11      N      12.1227943000    13.8442504000    16.4446593000
   12      O      16.4108133000    12.1313491000    10.2097075000
   13      O      15.1190570000    10.0272714000    18.5288177000
   14      O      11.1290189000    10.3657151000    18.8545277000
   15      O       8.2990082000    15.1419389000    18.2749697000
   16      O      13.5562040000    16.9047300000     9.6341685000
   17      N      13.1459147000    16.6060343000    12.5358173000
   18      N      15.4965237000    12.5285272000    13.1505830000
   19      C      11.0143706000    14.5319951000    16.8417490000
   20      C      14.1170956000    11.7921351000    16.3321237000
   21      C      15.9650751000    11.1214508000    15.1360316000
   22      C      11.0953689000    17.8358760000    15.1810458000
   23      C      14.8723675000    13.5645586000    12.5930497000
   24      C      12.4922182000    16.8341150000    13.6409164000
   25      C      11.8319416000    18.0811204000    14.0187143000
   26      C      10.2214631000    13.7490278000    17.7741864000
   27      C      15.2977586000    10.9475056000    16.3546309000
   28      C      13.7878495000    15.4471905000    12.3009395000
   29      C      11.3070969000    16.4441565000    15.5508055000
   30      C      12.1288558000    12.6755315000    17.1472027000
   31      C      15.7878894000    10.0968648000    17.3722738000
   32      C      11.8793668000    19.3617450000    13.4496060000
   33      C      10.9226761000    12.5554385000    17.9638892000
   34      C      17.1459011000    10.4155106000    14.8643386000
   35      C       8.9442376000    19.5584112000    17.6118137000
   36      H       9.4508233000    20.3839259000    17.6632585000
   37      H       8.1255381000    19.7310394000    17.1214803000
   38      C      10.3528342000    18.8531819000    15.7951684000
   39      C      15.2363235000    12.1179618000    14.3756128000
   40      C      14.3593810000    15.1246861000    11.0045300000
   41      C      15.0539669000    13.9171689000    11.1762271000
   42      C      10.4278783000    11.5483961000    18.7950447000
   43      C      11.1261322000    20.3329703000    14.0524750000
   44      H      11.1215417000    21.1866756000    13.6859306000
   45      C      16.9661325000     9.4174721000    17.0587819000
   46      H      17.3312499000     8.8448704000    17.6938039000
   47      C      15.7139749000    13.3261514000    10.1105154000
   48      C      17.5980982000     9.5544504000    15.8707280000
   49      H      18.3676159000     9.0557279000    15.7163935000
   50      C      10.3763483000    20.0885228000    15.1826535000
   51      H       9.8702941000    20.7785556000    15.5427672000
   52      C      14.3384859000    15.7631269000     9.7584399000
   53      C       8.6321772000    19.0697299000    18.9670633000
   54      H       8.2624313000    18.1755258000    18.8979343000
   55      H       9.4568811000    19.0078014000    19.4734733000
   56      C       9.0115299000    13.9744433000    18.4301079000
   57      C      18.9503624000     9.9285128000    13.3515393000
   58      H      19.5718897000     9.9701792000    14.0942739000
   59      H      18.7477221000     8.9961052000    13.1746977000
   60      C       8.5615626000    12.9870674000    19.2757322000
   61      H       7.7659346000    13.1239969000    19.7387356000
   62      C      10.7456831000     9.4004821000    19.7917881000
   63      H      10.9055579000     9.7274130000    20.6904649000
   64      H       9.7994720000     9.2055198000    19.7001520000
   65      C      15.7161443000     9.4532460000    19.6551378000
   66      H      15.8120791000     8.4994678000    19.5104492000
   67      H      16.6046296000     9.8276419000    19.7676734000
   68      C       9.2425547000    11.8006900000    19.4622197000
   69      H       8.8995913000    11.1624303000    20.0457969000
   70      C      15.7371172000    13.9977373000     8.9128156000
   71      H      16.2209588000    13.6411817000     8.2022340000
   72      C      15.0565071000    15.1953969000     8.7359741000
   73      H      15.0882829000    15.6210433000     7.9096416000
   74      C      11.5619574000     8.1528774000    19.5377793000
   75      H      12.5043098000     8.3841001000    19.5056263000
   76      H      11.3162087000     7.7750646000    18.6776862000
   77      C      13.1587044000    20.8344929000    12.0573805000
   78      H      12.4076280000    21.4172194000    11.8660700000
   79      H      13.6124249000    21.1860035000    12.8386987000
   80      C      14.0485738000    20.8689550000    10.9657856000
   81      H      13.6168669000    20.3965673000    10.2359122000
   82      H      14.8240276000    20.3434580000    11.2165791000
   83      C       7.6674238000    19.9281068000    19.7290897000
   84      H       6.8486296000    20.0094367000    19.2146415000
   85      H       8.0457399000    20.8148554000    19.8223335000
   86      C      14.9650728000     9.6661315000    20.8608758000
   87      H      14.0426834000     9.4279437000    20.6759960000
   88      H      14.9800813000    10.6185596000    21.0489710000
   89      C       6.5831864000    16.3007567000    17.1086190000
   90      H       7.0632746000    17.1373790000    17.0218059000
   91      H       6.1201459000    16.1594752000    16.2678177000
   92      C      15.6267041000    10.9876648000    10.4400838000
   93      H      14.7328058000    11.1713958000    10.1105154000
   94      H      15.5578977000    10.8648484000    11.3998513000
   95      C      12.2346021000    18.4933919000     8.5301948000
   96      H      12.3991602000    19.0594225000     9.3002595000
   97      H      11.4025321000    18.0184458000     8.6893522000
   98      C      11.3324346000     7.1381324000    20.6132976000
   99      H      10.3858331000     6.9355137000    20.6534889000
  100      H      11.5874296000     7.5230023000    21.4653525000
  101      C      13.3497586000    17.4870061000     8.4273051000
  102      H      14.1617389000    17.9288152000     8.1331050000
  103      H      13.1190623000    16.8089684000     7.7713836000
  104      C      15.3510178000     8.9895681000    22.0601833000
  105      H      15.2307208000     8.0388870000    21.9122794000
  106      H      16.2998699000     9.1391348000    22.1904030000
  107      C      20.7262645000    10.0357673000    11.6361760000
  108      H      21.3901812000    10.0388088000    12.3435423000
  109      H      20.5674991000     9.1104399000    11.3950284000
  110      C      15.4689195000     8.5757414000    10.1908980000
  111      H      14.6112143000     8.5534716000     9.7391481000
  112      H      15.2768533000     8.5751951000    11.1426272000
  113      C      12.0829851000     5.8709485000    20.4187719000
  114      H      11.8791032000     5.2653169000    21.1357841000
  115      H      11.8295242000     5.4733359000    19.5827935000
  116      H      13.0251303000     6.0559573000    20.4139489000
  117      C      12.0693240000    19.3428850000     7.3485715000
  118      H      11.8390644000    18.7693987000     6.6026215000
  119      H      12.9319963000    19.7392755000     7.1492228000
  120      C      19.5528736000    10.5502129000    12.1522319000
  121      H      19.7093214000    11.4844120000    12.3564035000
  122      H      18.8886234000    10.5224830000    11.4448655000
  123      C      14.6614194000     9.3375091000    23.3286197000
  124      H      15.0088477000     8.7948156000    24.0408090000
  125      H      14.8113782000    10.2638327000    23.5295761000
  126      H      13.7189659000     9.1785619000    23.2337683000
  127      C       7.5527856000    15.2880186000    17.2066857000
  128      H       8.1550812000    15.4029118000    16.4559129000
  129      H       7.0928610000    14.4446305000    17.0684278000
  130      C      16.0262801000     9.8303456000     9.9079514000
  131      H      15.9623692000     9.9403089000     8.9465763000
  132      H      16.9727204000     9.7545513000    10.1105154000
  133      C      11.1206074000    20.3871893000     7.3935857000
  134      H      11.1446390000    20.8764371000     6.5688609000
  135      H      10.2432576000    20.0172803000     7.5205901000
  136      H      11.3280117000    20.9770242000     8.1218515000
  137      C      21.3083710000    10.7266657000    10.4561603000
  138      H      22.1006944000    10.2640489000    10.1732138000
  139      H      20.6691154000    10.7306814000     9.7407558000
  140      H      21.5324041000    11.6307558000    10.6908773000
  141      C       7.3328736000    19.3970613000    21.0891623000
  142      H       6.7146047000    19.9920334000    21.5216203000
  143      H       6.9345570000    18.5284529000    21.0055644000
  144      H       8.1344700000    19.3338715000    21.6132564000
  145      C      14.5263882000    22.0774159000    10.4416915000
  146      H      13.7586074000    22.5934452000    10.1523143000
  147      H      14.9380491000    22.5671254000    11.1699573000
  148      C      15.5040661000    22.0465294000     9.3082977000
  149      H      15.7196571000    22.9447873000     9.0478583000
  150      H      16.3037028000    21.5946549000     9.5880289000
  151      H      15.1165550000    21.5805353000     8.5639554000
  152      C       5.5565906000    16.5132914000    18.1182237000
  153      H       5.0851084000    15.6754736000    18.2532664000
  154      H       5.9936888000    16.7367130000    18.9542021000
  155      C       4.5198059000    17.6033945000    17.8095548000
  156      H       3.9077376000    17.6809213000    18.5442511000
  157      H       4.9675882000    18.4417210000    17.6761198000
  158      H       4.0372176000    17.3707472000    17.0137677000
  159      C      16.0664960000     7.3789297000     9.9240279000
  160      H      15.4648420000     6.6645972000    10.1458837000
  161      H      16.2879840000     7.3334613000     8.9915905000
  162      H      16.8669951000     7.2979093000    10.4481221000
 ----------------------------------------------------------------
 Nuclear Repulsion Energy =       13987.39809617 hartrees
 There are      293 alpha and      293 beta electrons
 Requested basis set is 6-31G(d,p)
 There are 566 shells and 1610 basis functions

 Total QAlloc Memory Limit   2000 MB
 Mega-Array Size       188 MB
 MEM_STATIC part       192 MB

 A cutoff of  1.0D-12 yielded  35166 shell pairs
 There are    310040 function pairs
 Smallest overlap matrix eigenvalue = 1.72E-04

 Scale SEOQF with 1.000000e-03/1.000000e-03/1.000000e-03

 Standard Electronic Orientation quadrupole field applied
 Nucleus-field energy     =    -0.0000000199 hartrees
 Guess from superposition of atomic densities
 Warning:  Energy on first SCF cycle will be non-variational
 SAD guess density has 586.000001 electrons
 A restricted hybrid HF-DFT SCF calculation will be
 performed using Pulay DIIS extrapolation
 Exchange:     0.2500 Hartree-Fock + 0.7500 PBE
 Correlation:  1.0000 PBE
 Using SG-1 standard quadrature grid
 SCF converges when DIIS error is below 1.0E-08
 using 8 threads for integral computing
 -------------------------------------------------------
 OpenMP Integral computing Module                
 Release: version 1.0, May 2013, Q-Chem Inc. Pittsburgh 
 -------------------------------------------------------
 ---------------------------------------
  Cycle       Energy         DIIS Error
 ---------------------------------------
    1   -3551.6902608683      2.15E-02
    2   -3521.3326155616      2.06E-03
    3   -3521.3886153624      2.05E-03
    4   -3522.6137374846      4.24E-04
    5   -3522.6642554595      1.71E-04
    6   -3522.6733972595      5.15E-05
    7   -3522.6740645282      2.42E-05
    8   -3522.6742401682      1.02E-05
    9   -3522.6742781098      3.90E-06
   10   -3522.6742840255      7.56E-07
   11   -3522.6742841807      3.15E-07
   12   -3522.6742842065      1.70E-07
   13   -3522.6742842157      7.27E-08
   14   -3522.6742842175      2.62E-08
   15   -3522.6742842184      1.30E-08
   16   -3522.6742842188      4.93E-09 Convergence criterion met
 ---------------------------------------
 SCF time:  CPU 5820.86 s  wall 839.50 s
 SCF   energy in the final basis set = -3522.67428422
 Total energy in the final basis set = -3522.67428422

 CIS/TDDFT memory preview:
 --------------------------
	NOV = NOa*NVa + NOb*NVb = 771762
	NRoots = 12, max iter = 30, max vectors = 360
	Size of each subspace vector: 5.89 Mb
	Davidson algorithm may add up to 2 x NOV x NRoots (= 141.3 Mb) per iteration
	Max memory = 4239.4 Mb (worst case scenario)
	Currently available memory = 2000.0 Mb

	In case of problems:
	(a) increase memory (MEM_TOTAL = 4240 can hold 360 subspace vectors), or
	(b) request fewer states (CIS_N_ROOTS = 5 will fit in current MEM_TOTAL), or
	(c) reduce MAX_CIS_SUBSPACE (= 169 will fit in current MEM_TOTAL).
	Reducing MAX_CIS_SUBSPACE may hamper convergence.

 CIS energy converged when residual is below 10e- 6

 Direct TDDFT calculation will be performed
 Exchange:     0.2500 Hartree-Fock + 0.7500 PBE
 Correlation:  1.0000 PBE
 Using SG-1 standard quadrature grid
 ---------------------------------------------------
 Iter    Rts Conv    Rts Left    Ttl Dev     Max Dev
 ---------------------------------------------------
   1         0          12      0.002152    0.000288
   2         0          12      0.000629    0.000131
   3         0          12      0.000281    0.000066
   4         0          12      0.000220    0.000037
   5         0          12      0.000132    0.000043
   6         0          12      0.000055    0.000015
   7         0          12      0.000045    0.000015
   8         5           7      0.000025    0.000012
   9         9           3      0.000020    0.000012
  10        11           1      0.000024    0.000017
  11        11           1      0.000015    0.000008
  12        11           1      0.000013    0.000006
  13        11           1      0.000010    0.000003
  14        11           1      0.000008    0.000001
  15        11           1      0.000008    0.000001
  16        12           0      0.000007    0.000001    Roots Converged
 ---------------------------------------------------
 
 ---------------------------------------------------
             TDDFT Excitation Energies              
 ---------------------------------------------------

 Excited state   1: excitation energy (eV) =    1.8131
 Total energy for state  1:                 -3522.60765252 au
    Multiplicity: Singlet 
    Trans. Mom.:  1.7490 X   0.2282 Y  -2.5881 Z
    Strength   :     0.4357307225
    X: D(  293) --> V(    1) amplitude =  0.9861

 Excited state   2: excitation energy (eV) =    1.8861
 Total energy for state  2:                 -3522.60497292 au
    Multiplicity: Singlet 
    Trans. Mom.:  1.4681 X  -2.7589 Y   0.7937 Z
    Strength   :     0.4804158948
    X: D(  293) --> V(    2) amplitude =  0.9716

 Excited state   3: excitation energy (eV) =    2.6746
 Total energy for state  3:                 -3522.57599266 au
    Multiplicity: Singlet 
    Trans. Mom.:  0.2005 X   0.0370 Y  -0.3570 Z
    Strength   :     0.0110769840
    X: D(  292) --> V(    1) amplitude =  0.9880

 Excited state   4: excitation energy (eV) =    2.7743
 Total energy for state  4:                 -3522.57232924 au
    Multiplicity: Singlet 
    Trans. Mom.: -0.4956 X  -0.3629 Y   1.1119 Z
    Strength   :     0.1096716366
    X: D(  291) --> V(    1) amplitude =  0.9840

 Excited state   5: excitation energy (eV) =    2.8774
 Total energy for state  5:                 -3522.56854075 au
    Multiplicity: Singlet 
    Trans. Mom.: -0.7298 X   0.0623 Y  -0.2608 Z
    Strength   :     0.0426201955
    X: D(  290) --> V(    1) amplitude =  0.6036
    X: D(  292) --> V(    2) amplitude =  0.7780

 Excited state   6: excitation energy (eV) =    2.9265
 Total energy for state  6:                 -3522.56673708 au
    Multiplicity: Singlet 
    Trans. Mom.:  0.6340 X  -1.2452 Y   0.0076 Z
    Strength   :     0.1399889400
    X: D(  290) --> V(    1) amplitude =  0.3201
    X: D(  291) --> V(    2) amplitude =  0.9109

 Excited state   7: excitation energy (eV) =    2.9836
 Total energy for state  7:                 -3522.56463852 au
    Multiplicity: Singlet 
    Trans. Mom.: -0.1154 X   0.2108 Y  -0.0338 Z
    Strength   :     0.0043068721
    X: D(  290) --> V(    1) amplitude =  0.6901
    X: D(  291) --> V(    2) amplitude = -0.3795
    X: D(  292) --> V(    2) amplitude = -0.5668

 Excited state   8: excitation energy (eV) =    3.0376
 Total energy for state  8:                 -3522.56265376 au
    Multiplicity: Singlet 
    Trans. Mom.:  0.2088 X  -0.3441 Y   0.1222 Z
    Strength   :     0.0131675749
    X: D(  290) --> V(    2) amplitude =  0.9768

 Excited state   9: excitation energy (eV) =    3.1217
 Total energy for state  9:                 -3522.55956317 au
    Multiplicity: Singlet 
    Trans. Mom.: -0.2694 X   0.8555 Y  -0.4815 Z
    Strength   :     0.0792561219
    X: D(  288) --> V(    1) amplitude =  0.2737
    X: D(  289) --> V(    1) amplitude =  0.8596

 Excited state  10: excitation energy (eV) =    3.2142
 Total energy for state 10:                 -3522.55616437 au
    Multiplicity: Singlet 
    Trans. Mom.: -0.4943 X   0.7625 Y   0.5747 Z
    Strength   :     0.0910335265
    X: D(  288) --> V(    1) amplitude =  0.6577
    X: D(  289) --> V(    1) amplitude = -0.2693
    X: D(  289) --> V(    2) amplitude = -0.5181
    X: D(  293) --> V(    3) amplitude =  0.3918

 Excited state  11: excitation energy (eV) =    3.2205
 Total energy for state 11:                 -3522.55593293 au
    Multiplicity: Singlet 
    Trans. Mom.:  0.8788 X   0.2233 Y   0.2487 Z
    Strength   :     0.0697460448
    X: D(  288) --> V(    1) amplitude = -0.2782
    X: D(  293) --> V(    3) amplitude =  0.8947

 Excited state  12: excitation energy (eV) =    3.3357
 Total energy for state 12:                 -3522.55169920 au
    Multiplicity: Singlet 
    Trans. Mom.:  0.0576 X   0.1240 Y   0.1137 Z
    Strength   :     0.0025849374
    X: D(  287) --> V(    1) amplitude = -0.8975
    X: D(  289) --> V(    2) amplitude =  0.2962
 
 ---------------------------------------------------
  SETman timing summary (seconds)
  CPU time             30687.56s
  System time              0.01s
  Wall time             4054.88s
 
 --------------------------------------------------------------
 
                    Orbital Energies (a.u.)
 --------------------------------------------------------------
 
 Alpha MOs
 -- Occupied --
-19.2482 -19.2475 -19.2441 -19.2382 -19.2380 -19.2315 -19.2158 -19.2120
-14.4243 -14.4233 -14.3852 -14.3851 -14.3839 -14.3823 -14.3710 -14.3703
-10.3088 -10.3081 -10.3077 -10.3062 -10.2959 -10.2951 -10.2915 -10.2902
-10.2895 -10.2893 -10.2889 -10.2886 -10.2884 -10.2870 -10.2777 -10.2748
-10.2521 -10.2504 -10.2486 -10.2474 -10.2429 -10.2409 -10.2402 -10.2398
-10.2392 -10.2392 -10.2276 -10.2275 -10.2262 -10.2260 -10.2190 -10.2182
-10.2171 -10.2162 -10.2130 -10.2115 -10.2115 -10.2108 -10.2098 -10.2096
-10.1921 -10.1916 -10.1902 -10.1897 -10.1873 -10.1844 -10.1832 -10.1800
-10.1800 -10.1786 -10.1775 -10.1760 -10.1758 -10.1758 -10.1742 -10.1725
-10.1678 -10.1676 -10.1675 -10.1674 -10.1672 -10.1637 -10.1585 -10.1584
 -1.1022  -1.0891  -1.0886  -1.0861  -1.0845  -1.0839  -1.0815  -1.0608
 -1.0443  -1.0404  -0.9973  -0.9799  -0.9570  -0.9211  -0.9123  -0.8894
 -0.8890  -0.8875  -0.8794  -0.8721  -0.8687  -0.8683  -0.8672  -0.8622
 -0.8536  -0.8492  -0.8464  -0.8405  -0.8113  -0.8079  -0.8041  -0.8022
 -0.7986  -0.7914  -0.7849  -0.7844  -0.7819  -0.7777  -0.7737  -0.7702
 -0.7609  -0.7485  -0.7440  -0.7426  -0.7289  -0.7118  -0.7097  -0.7064
 -0.6995  -0.6927  -0.6894  -0.6872  -0.6863  -0.6755  -0.6723  -0.6681
 -0.6658  -0.6509  -0.6418  -0.6400  -0.6356  -0.6329  -0.6304  -0.6303
 -0.6277  -0.6263  -0.6211  -0.6160  -0.6152  -0.6142  -0.6105  -0.6049
 -0.5982  -0.5908  -0.5870  -0.5708  -0.5629  -0.5582  -0.5547  -0.5532
 -0.5487  -0.5451  -0.5429  -0.5424  -0.5405  -0.5378  -0.5361  -0.5295
 -0.5274  -0.5273  -0.5252  -0.5180  -0.5101  -0.5058  -0.5043  -0.5009
 -0.5004  -0.4973  -0.4964  -0.4935  -0.4906  -0.4866  -0.4846  -0.4839
 -0.4829  -0.4824  -0.4798  -0.4791  -0.4763  -0.4735  -0.4732  -0.4711
 -0.4705  -0.4670  -0.4650  -0.4632  -0.4610  -0.4608  -0.4582  -0.4566
 -0.4511  -0.4487  -0.4430  -0.4397  -0.4368  -0.4350  -0.4335  -0.4297
 -0.4277  -0.4237  -0.4232  -0.4220  -0.4211  -0.4196  -0.4176  -0.4170
 -0.4133  -0.4128  -0.4117  -0.4108  -0.4088  -0.4085  -0.4069  -0.4057
 -0.4038  -0.4003  -0.3960  -0.3939  -0.3914  -0.3906  -0.3875  -0.3840
 -0.3826  -0.3781  -0.3771  -0.3763  -0.3733  -0.3690  -0.3639  -0.3630
 -0.3620  -0.3614  -0.3587  -0.3563  -0.3544  -0.3539  -0.3522  -0.3508
 -0.3479  -0.3468  -0.3462  -0.3451  -0.3441  -0.3431  -0.3419  -0.3409
 -0.3389  -0.3385  -0.3358  -0.3332  -0.3312  -0.3304  -0.3257  -0.3237
 -0.3220  -0.3208  -0.3193  -0.3141  -0.3126  -0.3106  -0.3075  -0.2997
 -0.2987  -0.2953  -0.2932  -0.2915  -0.2874  -0.2805  -0.2669  -0.2641
 -0.2618  -0.2611  -0.2585  -0.2544  -0.2486  -0.2474  -0.2388  -0.2313
 -0.2269  -0.2137  -0.2085  -0.2060  -0.1602
 -- Virtual --
 -0.0844  -0.0793  -0.0233   0.0020   0.0142   0.0178   0.0216   0.0459
  0.0521   0.0548   0.0781   0.0812   0.0861   0.0873   0.0902   0.0997
  0.1221   0.1252   0.1255   0.1289   0.1301   0.1325   0.1342   0.1382
  0.1396   0.1413   0.1438   0.1446   0.1459   0.1469   0.1497   0.1509
  0.1515   0.1528   0.1582   0.1591   0.1611   0.1651   0.1652   0.1656
  0.1674   0.1708   0.1718   0.1745   0.1787   0.1826   0.1834   0.1851
  0.1884   0.1885   0.1912   0.1934   0.1943   0.1969   0.1980   0.2021
  0.2048   0.2068   0.2075   0.2093   0.2105   0.2121   0.2128   0.2140
  0.2145   0.2170   0.2172   0.2196   0.2203   0.2207   0.2227   0.2245
  0.2263   0.2268   0.2280   0.2287   0.2302   0.2317   0.2326   0.2337
  0.2343   0.2350   0.2358   0.2372   0.2381   0.2387   0.2409   0.2432
  0.2436   0.2451   0.2459   0.2481   0.2488   0.2492   0.2500   0.2522
  0.2526   0.2538   0.2550   0.2569   0.2578   0.2584   0.2594   0.2604
  0.2621   0.2631   0.2639   0.2652   0.2669   0.2681   0.2710   0.2723
  0.2739   0.2742   0.2773   0.2789   0.2829   0.2844   0.2863   0.2878
  0.2908   0.2915   0.2934   0.2941   0.2987   0.2990   0.3010   0.3024
  0.3035   0.3066   0.3082   0.3107   0.3124   0.3139   0.3183   0.3194
  0.3196   0.3217   0.3234   0.3257   0.3272   0.3276   0.3303   0.3318
  0.3332   0.3361   0.3385   0.3406   0.3418   0.3461   0.3525   0.3565
  0.3585   0.3610   0.3676   0.3722   0.3750   0.3792   0.3830   0.3847
  0.3884   0.3925   0.3990   0.4087   0.4122   0.4166   0.4186   0.4218
  0.4240   0.4297   0.4380   0.4465   0.4618   0.4659   0.4683   0.4751
  0.4761   0.4830   0.4868   0.4988   0.5007   0.5075   0.5099   0.5111
  0.5132   0.5148   0.5158   0.5165   0.5190   0.5209   0.5231   0.5244
[...]
  1.2524   1.2568   1.2579   1.2587   1.2606   1.2638   1.2689   1.2717
  1.2754   1.2784   1.2801   1.2824   1.2837   1.2846   1.2856   1.2912
  1.2929   1.2951   1.3020   1.3033   1.3066   1.3140   1.3160   1.3219
  1.3258   1.3266   1.3307   1.3362   1.3388   1.3431   1.3447   1.3470
  1.3479   1.3491   1.3524   1.3551   1.3580   1.3594   1.3631   1.3667
  1.3669   1.3717   1.3736   1.3762   1.3806   1.3875   1.3904   1.3953
  1.3961   1.3996   1.4005   1.4062   1.4080   1.4093   1.4118   1.4170
  1.4215   1.4235   1.4283   1.4317   1.4336   1.4357   1.4394   1.4441
  1.4456   1.4505   1.4532   1.4560   1.4567   1.4612   1.4625   1.4651
  1.4681   1.4756   1.4783   1.4797   1.4825   1.4878   1.4927   1.4960
  1.4981   1.5067   1.5120   1.5184   1.5235   1.5270   1.5304   1.5334
  1.5358   1.5376   1.5396   1.5409   1.5475   1.5519   1.5645   1.5691
  1.5789   1.5804   1.5842   1.5933   1.5963   1.6034   1.6094   1.6098
  1.6200   1.6249   1.6271   1.6336   1.6398   1.6444   1.6463   1.6507
  1.6534   1.6558   1.6560   1.6612   1.6641   1.6677   1.6691   1.6694
  1.6724   1.6744   1.6773   1.6817   1.6880   1.6905   1.6943   1.6968
  1.6981   1.7020   1.7048   1.7106   1.7152   1.7173   1.7202   1.7239
  1.7272   1.7308   1.7318   1.7341   1.7358   1.7386   1.7392   1.7409
  1.7445   1.7469   1.7508   1.7512   1.7526   1.7552   1.7565   1.7578
  1.7635   1.7665   1.7689   1.7722   1.7728   1.7749   1.7789   1.7810
  1.7874   1.7907   1.7941   1.7971   1.8037   1.8097   1.8119   1.8155
  1.8176   1.8185   1.8243   1.8275   1.8311   1.8354   1.8380   1.8440
  1.8509   1.8565   1.8582   1.8636   1.8670   1.8785   1.8808   1.8831
  1.8861   1.8879   1.8945   1.8950   1.8988   1.9042   1.9124   1.9149
  1.9164   1.9191   1.9229   1.9256   1.9279   1.9294   1.9322   1.9325
  1.9358   1.9384   1.9401   1.9420   1.9479   1.9519   1.9552   1.9581
  1.9592   1.9608   1.9655   1.9678   1.9707   1.9745   1.9747   1.9758
  1.9801   1.9824   1.9833   1.9920   1.9951   1.9973   2.0014   2.0040
  2.0065   2.0077   2.0125   2.0145   2.0177   2.0187   2.0220   2.0242
  2.0259   2.0277   2.0306   2.0308   2.0337   2.0346   2.0369   2.0450
  2.0464   2.0498   2.0540   2.0578   2.0652   2.0671   2.0721   2.0783
  2.0788   2.0823   2.0888   2.0905   2.0943   2.0970   2.1006   2.1035
  2.1073   2.1115   2.1173   2.1194   2.1216   2.1255   2.1316   2.1331
  2.1333   2.1349   2.1355   2.1361   2.1390   2.1395   2.1401   2.1418
  2.1422   2.1427   2.1452   2.1458   2.1494   2.1536   2.1554   2.1652
  2.1698   2.1816   2.1871   2.1963   2.2047   2.2111   2.2143   2.2171
  2.2221   2.2345   2.2409   2.2442   2.2451   2.2543   2.2551   2.2571
  2.2592   2.2611   2.2617   2.2639   2.2652   2.2679   2.2701   2.2709
  2.2719   2.2735   2.2762   2.2772   2.2782   2.2818   2.2843   2.2872
  2.2885   2.2919   2.2941   2.2948   2.2953   2.2993   2.3005   2.3031
  2.3052   2.3058   2.3075   2.3088   2.3099   2.3107   2.3122   2.3126
  2.3133   2.3139   2.3154   2.3172   2.3176   2.3197   2.3222   2.3233
  2.3281   2.3297   2.3314   2.3330   2.3362   2.3400   2.3406   2.3425
  2.3462   2.3470   2.3487   2.3515   2.3528   2.3546   2.3574   2.3592
  2.3608   2.3663   2.3668   2.3691   2.3731   2.3740   2.3769   2.3782
  2.3791   2.3827   2.3844   2.3859   2.3864   2.3872   2.3897   2.3946
  2.3959   2.3992   2.4003   2.4038   2.4041   2.4080   2.4136   2.4163
  2.4167   2.4234   2.4241   2.4245   2.4264   2.4295   2.4332   2.4332
  2.4354   2.4358   2.4380   2.4393   2.4430   2.4453   2.4467   2.4483
  2.4489   2.4528   2.4578   2.4610   2.4629   2.4655   2.4663   2.4699
  2.4710   2.4716   2.4721   2.4749   2.4759   2.4791   2.4817   2.4840
  2.4853   2.4862   2.4882   2.4903   2.4948   2.4983   2.5019   2.5062
  2.5091   2.5202   2.5214   2.5218   2.5279   2.5295   2.5335   2.5348
  2.5406   2.5454   2.5499   2.5532   2.5563   2.5572   2.5620   2.5687
  2.5756   2.5764   2.5769   2.5814   2.5827   2.5895   2.5921   2.5944
  2.5974   2.6030   2.6034   2.6053   2.6071   2.6104   2.6122   2.6175
  2.6193   2.6209   2.6243   2.6255   2.6295   2.6311   2.6332   2.6344
  2.6380   2.6395   2.6446   2.6466   2.6520   2.6532   2.6600   2.6641
  2.6683   2.6705   2.6710   2.6724   2.6736   2.6773   2.6820   2.6897
  2.6926   2.6954   2.7021   2.7038   2.7105   2.7127   2.7158   2.7187
  2.7223   2.7232   2.7265   2.7321   2.7338   2.7391   2.7440   2.7485
  2.7499   2.7518   2.7592   2.7615   2.7639   2.7662   2.7695   2.7712
  2.7744   2.7810   2.7920   2.7928   2.8009   2.8031   2.8116   2.8123
  2.8167   2.8193   2.8248   2.8284   2.8305   2.8342   2.8378   2.8404
  2.8413   2.8437   2.8466   2.8495   2.8510   2.8556   2.8603   2.8638
  2.8692   2.8708   2.8766   2.8821   2.8871   2.8885   2.8924   2.8941
  2.8964   2.8983   2.9000   2.9008   2.9031   2.9059   2.9076   2.9085
  2.9149   2.9170   2.9249   2.9300   2.9335   2.9348   2.9435   2.9492
  2.9511   2.9583   2.9682   2.9713   2.9769   2.9829   2.9864   2.9898
  2.9971   2.9994   3.0040   3.0089   3.0097   3.0133   3.0156   3.0173
  3.0214   3.0336   3.0380   3.0441   3.0466   3.0502   3.0518   3.0581
  3.0680   3.0747   3.0807   3.0851   3.0876   3.0920   3.0994   3.1019
  3.1138   3.1201   3.1221   3.1263   3.1283   3.1347   3.1363   3.1380
  3.1425   3.1448   3.1469   3.1473   3.1491   3.1527   3.1550   3.1589
  3.1616   3.1650   3.1786   3.1799   3.1805   3.1862   3.1920   3.1959
  3.2097   3.2144   3.2167   3.2192   3.2252   3.2300   3.2321   3.2345
  3.2352   3.2406   3.2432   3.2439   3.2449   3.2487   3.2509   3.2547
  3.2618   3.2633   3.2659   3.2714   3.2755   3.2784   3.2822   3.2859
  3.2862   3.2914   3.2999   3.3049   3.3128   3.3185   3.3242   3.3444
  3.3480   3.3554   3.3577   3.3649   3.3691   3.3795   3.3915   3.3985
  3.4099   3.4123   3.4266   3.4911   3.5298   3.5929   3.6093   3.6202
  3.6212   3.6369   3.6374   3.6386   3.6410   3.6463   3.6553   3.6564
  3.6579   3.6655   3.6784   3.6834   3.6848   3.6890   3.6907   3.6937
  3.6973   3.7017   3.7035   3.7119   3.7140   3.7156   3.7235   3.7243
  3.7257   3.7363   3.7368   3.7462   3.7474   3.7488   3.7517   3.7539
  3.7549   3.7616   3.7623   3.7759   3.7768   3.7793   3.7840   3.7863
  3.7865   3.7870   3.7876   3.7886   3.7893   3.7899   3.7911   3.7924
  3.8003   3.8031   3.8222   3.8261   3.8292   3.8306   3.8523   3.8865
  3.8904   3.8917   3.8961   3.9018   3.9027   3.9139   3.9157   3.9250
  3.9264   3.9319   3.9355   3.9369   3.9460   3.9491   3.9593   3.9850
  3.9938   4.0039   4.0166   4.0195   4.0259   4.0366   4.0584   4.0661
  4.0705   4.0818   4.0849   4.0923   4.0985   4.1469   4.1509   4.1540
  4.1635   4.1735   4.1787   4.1807   4.1833   4.1851   4.1913   4.1929
  4.2066   4.2424   4.2492   4.2617   4.2786   4.2980   4.3118   4.3295
  4.3339   4.3407   4.3529   4.3702   4.3777   4.3807   4.3846   4.3914
  4.4010   4.4061   4.4225   4.4244   4.4391   4.4924   4.4962   4.5038
  4.5126   4.5162   4.5177   4.5210   4.5289   4.5371   4.5441   4.5492
  4.5597   4.5682   4.5707   4.5916   4.6077   4.6108   4.6323   4.6397
  4.6425   4.6495   4.6537   4.6560   4.6579   4.6692   4.6704   4.6781
  4.6863   4.7060   4.7108   4.7228   4.7274   4.7518   4.7606   4.7959
  4.8084   4.8199   4.8237   4.8308   4.8386   4.8406   4.8913   4.9232
  4.9350   5.0407   5.0531   5.0601   5.0700
 --------------------------------------------------------------
 
          Ground-State Mulliken Net Atomic Charges

     Atom                 Charge (a.u.)
  ----------------------------------------
      1 N                    -0.670449
      2 O                    -0.549114
      3 O                    -0.550459
      4 N                    -0.573442
      5 H                     0.268153
      6 N                    -0.547240
      7 O                    -0.544724
      8 N                    -0.578861
      9 H                     0.271145
     10 N                    -0.530813
     11 N                    -0.666050
     12 O                    -0.577655
     13 O                    -0.531713
     14 O                    -0.542282
     15 O                    -0.537423
     16 O                    -0.532404
     17 N                    -0.527697
     18 N                    -0.550453
     19 C                     0.477085
     20 C                     0.535068
     21 C                    -0.048868
     22 C                    -0.059919
     23 C                     0.484241
     24 C                     0.548878
     25 C                    -0.050540
     26 C                     0.009369
     27 C                    -0.063538
     28 C                     0.476608
     29 C                     0.548019
     30 C                     0.478220
     31 C                     0.328756
     32 C                     0.319142
     33 C                    -0.033743
     34 C                     0.316936
     35 C                     0.026480
     36 H                     0.128487
     37 H                     0.127712
     38 C                     0.328359
     39 C                     0.554115
     40 C                    -0.032989
     41 C                     0.011080
     42 C                     0.307354
     43 C                    -0.116312
     44 H                     0.093227
     45 C                    -0.126925
     46 H                     0.094016
     47 C                     0.253524
     48 C                    -0.119509
     49 H                     0.094015
     50 C                    -0.126914
     51 H                     0.093898
     52 C                     0.301743
     53 C                    -0.275057
     54 H                     0.165967
     55 H                     0.144766
     56 C                     0.260556
     57 C                     0.024780
     58 H                     0.126251
     59 H                     0.126803
     60 C                    -0.100187
     61 H                     0.094769
     62 C                     0.031128
     63 H                     0.124516
     64 H                     0.124488
     65 C                     0.042403
     66 H                     0.118629
     67 H                     0.124822
     68 C                    -0.124748
     69 H                     0.093610
     70 C                    -0.100566
     71 H                     0.096987
     72 C                    -0.125635
     73 H                     0.095257
     74 C                    -0.271250
     75 H                     0.154544
     76 H                     0.143306
     77 C                     0.051428
     78 H                     0.112171
     79 H                     0.123129
     80 C                    -0.273674
     81 H                     0.142920
     82 H                     0.145970
     83 C                    -0.283882
     84 H                     0.131617
     85 H                     0.129582
     86 C                    -0.276528
     87 H                     0.150056
     88 H                     0.144973
     89 C                    -0.279519
     90 H                     0.136793
     91 H                     0.130460
     92 C                     0.075518
     93 H                     0.101066
     94 H                     0.134139
     95 C                    -0.277897
     96 H                     0.155121
     97 H                     0.139047
     98 C                    -0.283059
     99 H                     0.132647
    100 H                     0.130524
    101 C                     0.045632
    102 H                     0.112475
    103 H                     0.114911
    104 C                    -0.276292
    105 H                     0.128788
    106 H                     0.128694
    107 C                    -0.269603
    108 H                     0.122846
    109 H                     0.123199
    110 C                    -0.256684
    111 H                     0.124537
    112 H                     0.125375
    113 C                    -0.384805
    114 H                     0.132753
    115 H                     0.138353
    116 H                     0.132386
    117 C                    -0.273121
    118 H                     0.128753
    119 H                     0.124387
    120 C                    -0.268096
    121 H                     0.146401
    122 H                     0.160010
    123 C                    -0.383575
    124 H                     0.136320
    125 H                     0.140329
    126 H                     0.134953
    127 C                     0.075682
    128 H                     0.113243
    129 H                     0.081752
    130 C                    -0.267124
    131 H                     0.116321
    132 H                     0.125730
    133 C                    -0.372848
    134 H                     0.131512
    135 H                     0.134088
    136 H                     0.126938
    137 C                    -0.382893
    138 H                     0.131548
    139 H                     0.140830
    140 H                     0.137888
    141 C                    -0.388914
    142 H                     0.131063
    143 H                     0.143737
    144 H                     0.138581
    145 C                    -0.272141
    146 H                     0.124973
    147 H                     0.127430
    148 C                    -0.384677
    149 H                     0.136034
    150 H                     0.140526
    151 H                     0.134738
    152 C                    -0.269549
    153 H                     0.122162
    154 H                     0.140154
    155 C                    -0.396080
    156 H                     0.132452
    157 H                     0.131339
    158 H                     0.134486
    159 C                    -0.366134
    160 H                     0.133857
    161 H                     0.126309
    162 H                     0.123724
  ----------------------------------------
  Sum of atomic charges =     0.000000

 -----------------------------------------------------------------
                    Cartesian Multipole Moments
 -----------------------------------------------------------------
    Charge (ESU x 10^10)
                 0.0000
    Dipole Moment (Debye)
         X      -0.2453      Y       0.7662      Z      -1.0349
       Tot       1.3108
    Quadrupole Moments (Debye-Ang)
        XX    -440.6327     XY      -8.9061     YY    -353.8891
        XZ     -27.4303     YZ     -48.4411     ZZ    -415.4411
    Octopole Moments (Debye-Ang^2)
       XXX  -31875.4470    XXY   -8681.6679    XYY   -9587.7884
       YYY  -20441.6581    XXZ   -1322.4595    XYZ   -1214.1057
       YYZ   -1948.0365    XZZ  -10155.2057    YZZ   -7649.7025
       ZZZ   -1502.5362
    Hexadecapole Moments (Debye-Ang^3)
      XXXX ************   XXXY -601348.1184   XXYY -411339.7196
      XYYY -516506.6445   YYYY -811782.4476   XXXZ  -54733.1056
      XXYZ  -38919.6523   XYYZ  -45582.0588   YYYZ  -58767.1928
      XXZZ -261742.4337   XYZZ -184011.5695   YYZZ -155454.4836
      XZZZ  -28208.2141   YZZZ  -21830.7703   ZZZZ  -46222.3586
 -----------------------------------------------------------------
 Total job time:  4842.34s(wall), 36489.54s(cpu) 
 Tue Feb 11 13:54:14 2025

        *************************************************************
        *                                                           *
        *  Thank you very much for using Q-Chem.  Have a nice day.  *
        *                                                           *
        *************************************************************


Copy Fragment Subsystem from /scratch/sanghita/qchem213309/Frg2s1/
Copy MO Coefficient from /scratch/sanghita/qchem213309/Frg2s1/
Alpha electrons: 293
 Beta electrons: 293
Copy Set Amplitude from /scratch/sanghita/qchem213309/Frg2s1/

Total alpha electrons: 586
Total  beta electrons: 586

-----------------------------------------------------------------
 Done with SCF on isolated fragments
-----------------------------------------------------------------

-----------------------------------------------------------------
 Start with Direct Coulomb-Exchange Integration 
-----------------------------------------------------------------

 RPA/TDDFT Excited States --
 Donor    : State 1 to 6
 Acceptor : State 1 to 6
                                              Dipole-Dipole
              Coulomb (eV)    Exchange (eV)  Interaction (eV)
           ---------------  ---------------  ---------------
 ( 1, 1):     0.0116097481   4.96175845E-08     0.0123044454
 ( 1, 2):   -0.00197302193   3.39904863E-07   -0.00186503103
 ( 1, 3):    0.00175024876  -8.28419577E-08    0.00159633513
 ( 1, 4):   -0.00486697406   8.03498343E-08   -0.00494330765
 ( 1, 5):    0.00106650928  -2.08402432E-07   -0.00111341179
 ( 1, 6):   0.000770702391   1.32117181E-07   8.18371768E-05
 ( 2, 1):   -0.00197302069   3.39905957E-07   -0.00186502939
 ( 2, 2):   -0.00696658705    1.5819341E-06   -0.00668788601
 ( 2, 3):   0.000388171781  -2.01581056E-07  -0.000192358846
 ( 2, 4):   0.000103855626   -7.3627371E-08   6.36266862E-06
 ( 2, 5):   0.000941019586  -1.72609289E-07    0.00111615693
 ( 2, 6):   -0.00294043346   9.39265506E-07    -0.0029603034
 ( 3, 1):    0.00175024261  -8.28421215E-08    0.00159632916
 ( 3, 2):   0.000388171206  -2.01580473E-07  -0.000192359559
 ( 3, 3):   0.000184496076  -6.73670445E-10   0.000206308933
 ( 3, 4):  -0.000653153083     7.832471E-08  -0.000635336243
 ( 3, 5):   5.06125125E-05  -8.21108023E-08  -0.000161733374
 ( 3, 6):   0.000362162143  -1.66945328E-07    2.8125123E-05
 ( 4, 1):   -0.00486697575   8.03499279E-08   -0.00494330988
 ( 4, 2):   0.000103859298  -7.36278475E-08   6.36704926E-06
 ( 4, 3):  -0.000653155985   7.83248148E-08    -0.0006353388
 ( 4, 4):    0.00191669923  -1.75314507E-07    0.00190567564
 ( 4, 5):  -0.000284210936   2.82905067E-07   0.000565098724
 ( 4, 6):   -0.00055687528   7.96938569E-08   -0.00034152573
 ( 5, 1):    0.00106651375  -2.08402384E-07   -0.00111340858
 ( 5, 2):    0.00094101453  -1.72607711E-07    0.00111615263
 ( 5, 3):   5.06138331E-05  -8.21112096E-08  -0.000161733759
 ( 5, 4):   -0.00028421243   2.82905314E-07   0.000565097333
 ( 5, 5):   -0.00010375492  -3.86016321E-07   -0.00028049953
 ( 5, 6):    0.00044532309  -2.88130905E-07   0.000310165754
 ( 6, 1):   0.000770697602   1.32118522E-07   8.18364133E-05
 ( 6, 2):   -0.00294043676   9.39265847E-07   -0.00296030665
 ( 6, 3):   0.000362162752  -1.66945405E-07   2.81256708E-05
 ( 6, 4):  -0.000556874837   7.96933552E-08  -0.000341527212
 ( 6, 5):   0.000445324892  -2.88130924E-07   0.000310168457
 ( 6, 6):    -0.0010645447   4.71292302E-07    -0.0012734823
--------------------------------------------------------------
 DC time:  CPU 9551.63 s  wall 1241.91 s


 CIS/TDDFT memory preview:
 --------------------------
	NOV = NOa*NVa + NOb*NVb = 3087048
	NRoots = 12, max iter = 30, max vectors = 360
	Size of each subspace vector: 23.55 Mb
	Davidson algorithm may add up to 2 x NOV x NRoots (= 565.3 Mb) per iteration
	Max memory = 16957.7 Mb (worst case scenario)
	Currently available memory = 2000.0 Mb

	In case of problems:
	(a) increase memory (MEM_TOTAL = 16958 can hold 360 subspace vectors), or
	(b) request fewer states (CIS_N_ROOTS = 1 will fit in current MEM_TOTAL), or
	(c) reduce MAX_CIS_SUBSPACE (= 42 will fit in current MEM_TOTAL).
	Reducing MAX_CIS_SUBSPACE may hamper convergence.

 CIS energy converged when residual is below 10e- 6
  Skipping CIS/RPA calculation, including relax
  Going directly to Wavefunction Analysis
 No wavefunction analysis requested
 Total job time:  11060.07s(wall), 9599.77s(cpu) 
 Tue Feb 11 14:15:12 2025

        *************************************************************
        *                                                           *
        *  Thank you very much for using Q-Chem.  Have a nice day.  *
        *                                                           *
        *************************************************************


