                  Welcome to Q-Chem
     A Quantum Leap Into The Future Of Chemistry


 Q-Chem 6.1 (devel), Q-Chem, Inc., Pleasanton, CA (2022)

 E. Epifanovsky,  A. T. B. Gilbert,  Xintian Feng,  Joonho Lee,  Yuezhi Mao,  
 N. Mardirossian,  P. Pokhilko,  A. White,  M. Wormit,  M. P. Coons,  
 A. L. Dempwolff,  Zhengting Gan,  D. Hait,  P. R. Horn,  L. D. Jacobson,  
 I. Kaliman,  J. Kussmann,  A. W. Lange,  Ka Un Lao,  D. S. Levine,  Jie Liu,  
 S. C. McKenzie,  A. F. Morrison,  K. Nanda,  F. Plasser,  D. R. Rehn,  
 M. L. Vidal,  Zhi-Qiang You,  Ying Zhu,  B. Alam,  B. Albrecht,  
 A. Aldossary,  E. Alguire,  J. H. Andersen,  V. Athavale,  D. Barton,  
 K. Begam,  A. Behn,  N. Bellonzi,  Y. A. Bernard,  E. J. Berquist,  
 H. Burton,  A. Carreras,  K. Carter-Fenk,  Mathew Chow,  Romit Chakraborty,  
 Chandrima Chakravarty,  Junhan Chen,  A. D. Chien,  K. D. Closser,  
 V. Cofer-Shabica,  L. Cunha,  S. Dasgupta,  Jia Deng,  M. de Wergifosse,  
 M. Diedenhofen,  Hainam Do,  S. Ehlert,  Po-Tung Fang,  S. Fatehi,  
 Qingguo Feng,  T. Friedhoff,  Thomas Froitzheim,  B. Ganoe,  J. Gayvert,  
 Qinghui Ge,  G. Gidofalvi,  M. Goldey,  Montgomery Gray,  J. Gomes,  
 C. Gonzalez-Espinoza,  S. Gulania,  A. Gunina,  J. A. Gyamfi,  
 M. W. D. Hanson-Heine,  P. H. P. Harbach,  A. W. Hauser,  M. F. Herbst,  
 M. Hernandez Vera,  M. Hodecker,  Z. C. Holden,  S. Houck,  Xunkun Huang,  
 Kerwin Hui,  B. C. Huynh,  K. Ikeda,  M. Ivanov,  Hyunjun Ji,  Zuxin Jin,  
 Hanjie Jiang,  Subrata Jana,  B. Kaduk,  S. Kaehler,  R. Kang,  
 K. Khistyaev,  Jaehoon Kim,  Yongbin Kim,  P. Klunzinger,  Z. Koczor-Benda,  
 Joong Hoon Koh,  D. Kosenkov,  Saikiran Kotaru,  L. Koulias,  T. Kowalczyk,  
 C. M. Krauter,  K. Kue,  A. Kunitsa,  T. Kus,  A. Landau,  K. V. Lawler,  
 D. Lefrancois,  S. Lehtola,  Rain Li,  Shaozhi Li,  Yi-Pei Li,  
 Jiashu Liang,  M. Liebenthal,  Hung-Hsuan Lin,  You-Sheng Lin,  Fenglai Liu,  
 Kuan-Yu Liu,  M. Loipersberger,  A. Luenser,  C. Malbon,  A. Manjanath,  
 P. Manohar,  E. Mansoor,  S. F. Manzer,  Shan-Ping Mao,  A. V. Marenich,  
 T. Markovich,  S. Mason,  F. Matz,  S. A. Maurer,  P. F. McLaughlin,  
 M. F. S. J. Menger,  J.-M. Mewes,  S. A. Mewes,  P. Morgante,  
 Mohammad Mostafanejad,  J. W. Mullinax,  K. J. Oosterbaan,  G. Paran,  
 V. Parravicini,  Alexander C. Paul,  Suranjan K. Paul,  F. Pavosevic,  
 Zheng Pei,  S. Prager,  E. I. Proynov,  E. Ramos,  B. Rana,  A. E. Rask,  
 A. Rettig,  R. M. Richard,  F. Rob,  E. Rossomme,  T. Scheele,  M. Scheurer,  
 M. Schneider,  P. E. Schneider,  N. Sergueev,  S. M. Sharada,  
 Hengyuan Shen,  W. Skomorowski,  D. W. Small,  C. J. Stein,  Yingli Su,  
 Yu-Chuan Su,  E. J. Sundstrom,  Zhen Tao,  J. Thirman,  Hung-Yi Tsai,  
 T. Tsuchimochi,  N. M. Tubman,  C. Utku,  S. P. Veccham,  O. Vydrov,  
 J. Wenzel,  Jonathan Wong,  J. Witte,  A. Yamada,  Chou-Hsun Yang,  Kun Yao,  
 S. Yeganeh,  S. R. Yost,  A. Zech,  F. Zeller,  Igor Ying Zhang,  
 Xing Zhang,  Yu Zhang,  D. Zuev,  A. Aspuru-Guzik,  A. T. Bell,  
 N. A. Besley,  K. B. Bravaya,  B. R. Brooks,  D. Casanova,  Jeng-Da Chai,  
 Hsing-Ta Chen,  S. Coriani,  C. J. Cramer,  A. E. DePrince, III,  
 R. A. DiStasio Jr.,  A. Dreuw,  B. D. Dunietz,  T. R. Furlani,  
 W. A. Goddard III,  S. Grimme,  S. Hammes-Schiffer,  T. Head-Gordon,  
 W. J. Hehre,  Chao-Ping Hsu,  T.-C. Jagau,  Yousung Jung,  A. Klamt,  
 Jing Kong,  D. S. Lambrecht,  Xiangyuan Li,  WanZhen Liang,  N. J. Mayhall,  
 C. W. McCurdy,  J. B. Neaton,  T. Neudecker,  C. Ochsenfeld,  
 J. A. Parkhill,  R. Peverati,  V. A. Rassolov,  Haisheng Ren,  Yihan Shao,  
 L. V. Slipchenko,  R. P. Steele,  J. E. Subotnik,  A. J. W. Thom,  
 A. Tkatchenko,  D. G. Truhlar,  T. Van Voorhis,  Fan Wang,  
 T. A. Wesolowski,  K. B. Whaley,  H. L. Woodcock III,  P. M. Zimmerman,  
 S. Faraji,  P. M. W. Gill,  M. Head-Gordon,  J. M. Herbert,  A. I. Krylov

 Contributors to earlier versions of Q-Chem not listed above: 
 R. D. Adamson,  B. Austin,  R. Baer,  J. Baker,  G. J. O. Beran,  
 K. Brandhorst,  S. T. Brown,  E. F. C. Byrd,  Arup K. Chakraborty,  
 G. K. L. Chan,  Chun-Min Chang,  Yunqing Chen,  C.-L. Cheng,  
 Siu Hung Chien,  D. M. Chipman,  D. L. Crittenden,  H. Dachsel,  
 R. J. Doerksen,  A. D. Dutoi,  R. G. Edgar,  J. Fosso-Tande,  
 L. Fusti-Molnar,  D. Ghosh,  A. Ghysels,  A. Golubeva-Zadorozhnaya,  
 J. Gonthier,  M. S. Gordon,  S. R. Gwaltney,  G. Hawkins,  J. E. Herr,  
 A. Heyden,  S. Hirata,  E. G. Hohenstein,  G. Kedziora,  F. J. Keil,  
 C. Kelley,  Jihan Kim,  R. A. King,  R. Z. Khaliullin,  P. P. Korambath,  
 W. Kurlancheek,  A. Laurent,  A. M. Lee,  M. S. Lee,  S. V. Levchenko,  
 Ching Yeh Lin,  D. Liotard,  E. Livshits,  R. C. Lochan,  I. Lotan,  
 L. A. Martinez-Martinez,  P. E. Maslen,  N. Nair,  D. P. O'Neill,  
 D. Neuhauser,  E. Neuscamman,  C. M. Oana,  R. Olivares-Amaya,  R. Olson,  
 T. M. Perrine,  B. Peters,  P. A. Pieniazek,  A. Prociuk,  Y. M. Rhee,  
 J. Ritchie,  M. A. Rohrdanz,  E. Rosta,  N. J. Russ,  H. F. Schaefer III,  
 M. W. Schmidt,  N. E. Schultz,  S. Sharma,  N. Shenvi,  C. D. Sherrill,  
 A. C. Simmonett,  A. Sodt,  T. Stein,  D. Stuck,  K. S. Thanthiriwatte,  
 V. Vanovschi,  L. Vogt,  Tao Wang,  A. Warshel,  M. A. Watson,  
 C. F. Williams,  Q. Wu,  X. Xu,  Jun Yang,  W. Zhang,  Yan Zhao

   Please cite Q-Chem as follows:
  "Software for the frontiers of quantum chemistry:
   An overview of developments in the Q-Chem 5 package"
   J. Chem. Phys. 155, 084801 (2021)
   https://doi.org/10.1063/5.0055522 (open access)

 Q-Chem 6.1.0 for Intel X86 EM64T Linux

 Parts of Q-Chem use Armadillo 9.900.5 (Nocturnal Misbehaviour).
 http://arma.sourceforge.net/

 Q-Chem begins on Tue Feb 11 15:22:03 2025  

 Host: n042.cluster
0

     Scratch files written to /scratch/sanghita/qchem47523//
 Processing $rem in /home/chance/software/ccats2023/config/preferences:
 Processing $rem in /home/sanghita/.qchemrc:

 Checking the input file for inconsistencies... 	...done.

--------------------------------------------------------------
User input:
--------------------------------------------------------------
$molecule
0 1
--
0 1
N   14.0720775   14.4772325   13.2163359
O    9.7109512   18.5476720   16.9529985
O   12.6699426   19.5523330   12.3564035
N   14.1978809   12.5091885   15.1593425
H   13.6499394   13.1366178   14.9463288
N   10.6968001   15.7849540   16.5189328
O   17.7504349   10.6360029   13.6758024
N   12.1814359   15.9435682   14.6317116
H   12.5053443   15.1481361   14.6714205
N   13.1221249   11.7865154   17.1941461
N   12.1227943   13.8442504   16.4446593
O   16.4108133   12.1313491   10.2097075
O   15.1190570   10.0272714   18.5288177
O   11.1290189   10.3657151   18.8545277
O    8.2990082   15.1419389   18.2749697
O   13.5562040   16.9047300    9.6341685
N   13.1459147   16.6060343   12.5358173
N   15.4965237   12.5285272   13.1505830
C   11.0143706   14.5319951   16.8417490
C   14.1170956   11.7921351   16.3321237
C   15.9650751   11.1214508   15.1360316
C   11.0953689   17.8358760   15.1810458
C   14.8723675   13.5645586   12.5930497
C   12.4922182   16.8341150   13.6409164
C   11.8319416   18.0811204   14.0187143
C   10.2214631   13.7490278   17.7741864
C   15.2977586   10.9475056   16.3546309
C   13.7878495   15.4471905   12.3009395
C   11.3070969   16.4441565   15.5508055
C   12.1288558   12.6755315   17.1472027
C   15.7878894   10.0968648   17.3722738
C   11.8793668   19.3617450   13.4496060
C   10.9226761   12.5554385   17.9638892
C   17.1459011   10.4155106   14.8643386
C    8.9442376   19.5584112   17.6118137
H    9.4508233   20.3839259   17.6632585
H    8.1255381   19.7310394   17.1214803
C   10.3528342   18.8531819   15.7951684
C   15.2363235   12.1179618   14.3756128
C   14.3593810   15.1246861   11.0045300
C   15.0539669   13.9171689   11.1762271
C   10.4278783   11.5483961   18.7950447
C   11.1261322   20.3329703   14.0524750
H   11.1215417   21.1866756   13.6859306
C   16.9661325    9.4174721   17.0587819
H   17.3312499    8.8448704   17.6938039
C   15.7139749   13.3261514   10.1105154
C   17.5980982    9.5544504   15.8707280
H   18.3676159    9.0557279   15.7163935
C   10.3763483   20.0885228   15.1826535
H    9.8702941   20.7785556   15.5427672
C   14.3384859   15.7631269    9.7584399
C    8.6321772   19.0697299   18.9670633
H    8.2624313   18.1755258   18.8979343
H    9.4568811   19.0078014   19.4734733
C    9.0115299   13.9744433   18.4301079
C   18.9503624    9.9285128   13.3515393
H   19.5718897    9.9701792   14.0942739
H   18.7477221    8.9961052   13.1746977
C    8.5615626   12.9870674   19.2757322
H    7.7659346   13.1239969   19.7387356
C   10.7456831    9.4004821   19.7917881
H   10.9055579    9.7274130   20.6904649
H    9.7994720    9.2055198   19.7001520
C   15.7161443    9.4532460   19.6551378
H   15.8120791    8.4994678   19.5104492
H   16.6046296    9.8276419   19.7676734
C    9.2425547   11.8006900   19.4622197
H    8.8995913   11.1624303   20.0457969
C   15.7371172   13.9977373    8.9128156
H   16.2209588   13.6411817    8.2022340
C   15.0565071   15.1953969    8.7359741
H   15.0882829   15.6210433    7.9096416
C   11.5619574    8.1528774   19.5377793
H   12.5043098    8.3841001   19.5056263
H   11.3162087    7.7750646   18.6776862
C   13.1587044   20.8344929   12.0573805
H   12.4076280   21.4172194   11.8660700
H   13.6124249   21.1860035   12.8386987
C   14.0485738   20.8689550   10.9657856
H   13.6168669   20.3965673   10.2359122
H   14.8240276   20.3434580   11.2165791
C    7.6674238   19.9281068   19.7290897
H    6.8486296   20.0094367   19.2146415
H    8.0457399   20.8148554   19.8223335
C   14.9650728    9.6661315   20.8608758
H   14.0426834    9.4279437   20.6759960
H   14.9800813   10.6185596   21.0489710
C    6.5831864   16.3007567   17.1086190
H    7.0632746   17.1373790   17.0218059
H    6.1201459   16.1594752   16.2678177
C   15.6267041   10.9876648   10.4400838
H   14.7328058   11.1713958   10.1105154
H   15.5578977   10.8648484   11.3998513
C   12.2346021   18.4933919    8.5301948
H   12.3991602   19.0594225    9.3002595
H   11.4025321   18.0184458    8.6893522
C   11.3324346    7.1381324   20.6132976
H   10.3858331    6.9355137   20.6534889
H   11.5874296    7.5230023   21.4653525
C   13.3497586   17.4870061    8.4273051
H   14.1617389   17.9288152    8.1331050
H   13.1190623   16.8089684    7.7713836
C   15.3510178    8.9895681   22.0601833
H   15.2307208    8.0388870   21.9122794
H   16.2998699    9.1391348   22.1904030
C   20.7262645   10.0357673   11.6361760
H   21.3901812   10.0388088   12.3435423
H   20.5674991    9.1104399   11.3950284
C   15.4689195    8.5757414   10.1908980
H   14.6112143    8.5534716    9.7391481
H   15.2768533    8.5751951   11.1426272
C   12.0829851    5.8709485   20.4187719
H   11.8791032    5.2653169   21.1357841
H   11.8295242    5.4733359   19.5827935
H   13.0251303    6.0559573   20.4139489
C   12.0693240   19.3428850    7.3485715
H   11.8390644   18.7693987    6.6026215
H   12.9319963   19.7392755    7.1492228
C   19.5528736   10.5502129   12.1522319
H   19.7093214   11.4844120   12.3564035
H   18.8886234   10.5224830   11.4448655
C   14.6614194    9.3375091   23.3286197
H   15.0088477    8.7948156   24.0408090
H   14.8113782   10.2638327   23.5295761
H   13.7189659    9.1785619   23.2337683
C    7.5527856   15.2880186   17.2066857
H    8.1550812   15.4029118   16.4559129
H    7.0928610   14.4446305   17.0684278
C   16.0262801    9.8303456    9.9079514
H   15.9623692    9.9403089    8.9465763
H   16.9727204    9.7545513   10.1105154
C   11.1206074   20.3871893    7.3935857
H   11.1446390   20.8764371    6.5688609
H   10.2432576   20.0172803    7.5205901
H   11.3280117   20.9770242    8.1218515
C   21.3083710   10.7266657   10.4561603
H   22.1006944   10.2640489   10.1732138
H   20.6691154   10.7306814    9.7407558
H   21.5324041   11.6307558   10.6908773
C    7.3328736   19.3970613   21.0891623
H    6.7146047   19.9920334   21.5216203
H    6.9345570   18.5284529   21.0055644
H    8.1344700   19.3338715   21.6132564
C   14.5263882   22.0774159   10.4416915
H   13.7586074   22.5934452   10.1523143
H   14.9380491   22.5671254   11.1699573
C   15.5040661   22.0465294    9.3082977
H   15.7196571   22.9447873    9.0478583
H   16.3037028   21.5946549    9.5880289
H   15.1165550   21.5805353    8.5639554
C    5.5565906   16.5132914   18.1182237
H    5.0851084   15.6754736   18.2532664
H    5.9936888   16.7367130   18.9542021
C    4.5198059   17.6033945   17.8095548
H    3.9077376   17.6809213   18.5442511
H    4.9675882   18.4417210   17.6761198
H    4.0372176   17.3707472   17.0137677
C   16.0664960    7.3789297    9.9240279
H   15.4648420    6.6645972   10.1458837
H   16.2879840    7.3334613    8.9915905
H   16.8669951    7.2979093   10.4481221
--
0 1
N   -6.8672478   -7.8665447   29.2928432
O  -11.2283740   -3.7961053   33.0295057
O   -8.2693826   -2.7914443   28.4329108
N   -6.7414444   -9.8345887   31.2358498
H   -7.2893858   -9.2071594   31.0228361
N  -10.2425252   -6.5588233   32.5954400
O   -3.1888904  -11.7077744   29.7523097
N   -8.7578894   -6.4002091   30.7082189
H   -8.4339809   -7.1956411   30.7479278
N   -7.8172004  -10.5572619   33.2706533
N   -8.8165310   -8.4995269   32.5211666
O   -4.5285119  -10.2124282   26.2862148
O   -5.8202683  -12.3165058   34.6053250
O   -9.8103064  -11.9780621   34.9310350
O  -12.6403170   -7.2018384   34.3514769
O   -7.3831212   -5.4390472   25.7106758
N   -7.7934106   -5.7377430   28.6123246
N   -5.4428015   -9.8152501   29.2270902
C   -9.9249546   -7.8117822   32.9182563
C   -6.8222296  -10.5516421   32.4086310
C   -4.9742501  -11.2223265   31.2125389
C   -9.8439564   -4.5079013   31.2575531
C   -6.0669578   -8.7792186   28.6695570
C   -8.4471070   -5.5096623   29.7174237
C   -9.1073836   -4.2626568   30.0952216
C  -10.7178621   -8.5947495   33.8506937
C   -5.6415667  -11.3962717   32.4311381
C   -7.1514758   -6.8965868   28.3774468
C   -9.6322283   -5.8996208   31.6273128
C   -8.8104695   -9.6682458   33.2237099
C   -5.1514359  -12.2469125   33.4487810
C   -9.0599585   -2.9820322   29.5261133
C  -10.0166492   -9.7883388   34.0403965
C   -3.7934241  -11.9282666   30.9408459
C  -11.9950876   -2.7853661   33.6883210
H  -11.4885019   -1.9598514   33.7397658
H  -12.8137872   -2.6127379   33.1979875
C  -10.5864911   -3.4905954   31.8716757
C   -5.7030018  -10.2258155   30.4521201
C   -6.5799443   -7.2190911   27.0810373
C   -5.8853584   -8.4266084   27.2527344
C  -10.5114469  -10.7953812   34.8715519
C   -9.8131930   -2.0108069   30.1289823
H   -9.8177836   -1.1571017   29.7624379
C   -3.9731927  -12.9263052   33.1352892
H   -3.6080754  -13.4989068   33.7703112
C   -5.2253504   -9.0176258   26.1870227
C   -3.3412270  -12.7893268   31.9472353
H   -2.5717094  -13.2880493   31.7929008
C  -10.5629769   -2.2552544   31.2591608
H  -11.0690311   -1.5652217   31.6192745
C   -6.6008394   -6.5806503   25.8349472
C  -12.3071480   -3.2740473   35.0435706
H  -12.6768940   -4.1682515   34.9744416
H  -11.4824441   -3.3359758   35.5499805
C  -11.9277954   -8.3693339   34.5066152
C   -1.9889628  -12.4152644   29.4280466
H   -1.3674355  -12.3735981   30.1707812
H   -2.1916031  -13.3476720   29.2512050
C  -12.3777626   -9.3567098   35.3522395
H  -13.1733907   -9.2197803   35.8152429
C  -10.1936422  -12.9432951   35.8682954
H  -10.0337673  -12.6163643   36.7669722
H  -11.1398533  -13.1382574   35.7766593
C   -5.2231809  -12.8905312   35.7316451
H   -5.1272461  -13.8443095   35.5869565
H   -4.3346956  -12.5161354   35.8441806
C  -11.6967705  -10.5430872   35.5387270
H  -12.0397339  -11.1813470   36.1223042
C   -5.2022081   -8.3460399   24.9893229
H   -4.7183664   -8.7025956   24.2787413
C   -5.8828181   -7.1483803   24.8124813
H   -5.8510423   -6.7227340   23.9861489
C   -9.3773678  -14.1908999   35.6142866
H   -8.4350154  -13.9596772   35.5821336
H   -9.6231166  -14.5687126   34.7541934
C   -7.7806208   -1.5092843   28.1338877
H   -8.5316973   -0.9265579   27.9425773
H   -7.3269004   -1.1577737   28.9152060
C   -6.8907514   -1.4748223   27.0422929
H   -7.3224583   -1.9472099   26.3124195
H   -6.1152976   -2.0003193   27.2930864
C  -13.2719014   -2.4156704   35.8055970
H  -14.0906957   -2.3343405   35.2911488
H  -12.8935854   -1.5289219   35.8988408
C   -5.9742525  -12.6776458   36.9373831
H   -6.8966419  -12.9158335   36.7525033
H   -5.9592440  -11.7252177   37.1254783
C  -14.3561389   -6.0430206   33.1851263
H  -13.8760507   -5.2063982   33.0983132
H  -14.8191793   -6.1843021   32.3443250
C   -5.3126212  -11.3561125   26.5165911
H   -6.2065195  -11.1723815   26.1870227
H   -5.3814275  -11.4789289   27.4763586
C   -8.7047232   -3.8503854   24.6067020
H   -8.5401650   -3.2843547   25.3767667
H   -9.5367932   -4.3253315   24.7658595
C   -9.6068906  -15.2056448   36.6898049
H  -10.5534921  -15.4082636   36.7299962
H   -9.3518956  -14.8207749   37.5418598
C   -7.5895667   -4.8567711   24.5038124
H   -6.7775864   -4.4149620   24.2096123
H   -7.8202630   -5.5348088   23.8478909
C   -5.5883074  -13.3542092   38.1366906
H   -5.7086045  -14.3048903   37.9887867
H   -4.6394553  -13.2046425   38.2669103
C   -0.2130608  -12.3080099   27.7126832
H    0.4508560  -12.3049685   28.4200496
H   -0.3718261  -13.2333373   27.4715356
C   -5.4704057  -13.7680358   26.2674052
H   -6.3281110  -13.7903057   25.8156554
H   -5.6624720  -13.7685822   27.2191345
C   -8.8563402  -16.4728288   36.4952792
H   -9.0602221  -17.0784603   37.2122914
H   -9.1098011  -16.8704414   35.6593008
H   -7.9141949  -16.2878200   36.4904562
C   -8.8700013   -3.0008923   23.4250788
H   -9.1002609   -3.5743786   22.6791288
H   -8.0073290   -2.6045018   23.2257301
C   -1.3864516  -11.7935643   28.2287391
H   -1.2300038  -10.8593653   28.4329108
H   -2.0507019  -11.8212942   27.5213728
C   -6.2779058  -13.0062682   39.4051270
H   -5.9304775  -13.5489617   40.1173163
H   -6.1279470  -12.0799446   39.6060833
H   -7.2203593  -13.1652153   39.3102756
C  -13.3865396   -7.0557587   33.2831930
H  -12.7842441   -6.9408654   32.5324201
H  -13.8464643   -7.8991468   33.1449351
C   -4.9130451  -12.5134317   25.9844587
H   -4.9769561  -12.4034683   25.0230836
H   -3.9666048  -12.5892259   26.1870227
C   -9.8187178   -1.9565880   23.4700930
H   -9.7946863   -1.4673401   22.6453682
H  -10.6960676   -2.3264969   23.5970974
H   -9.6113136   -1.3667531   24.1983588
C    0.3690457  -11.6171116   26.5326676
H    1.1613691  -12.0797284   26.2497211
H   -0.2702099  -11.6130959   25.8172630
H    0.5930789  -10.7130215   26.7673846
C  -13.6064517   -2.9467160   37.1656695
H  -14.2247205   -2.3517439   37.5981276
H  -14.0047683   -3.8153244   37.0820717
H  -12.8048553   -3.0099057   37.6897637
C   -6.4129371   -0.2663613   26.5181988
H   -7.1807178    0.2496680   26.2288216
H   -6.0012762    0.2233481   27.2464645
C   -5.4352592   -0.2972478   25.3848050
H   -5.2196682    0.6010100   25.1243656
H   -4.6356225   -0.7491223   25.6645362
H   -5.8227702   -0.7632419   24.6404627
C  -15.3827346   -5.8304859   34.1947310
H  -15.8542168   -6.6683036   34.3297736
H  -14.9456365   -5.6070643   35.0307094
C  -16.4195193   -4.7403828   33.8860620
H  -17.0315876   -4.6628560   34.6207584
H  -15.9717370   -3.9020563   33.7526270
H  -16.9021076   -4.9730300   33.0902749
C   -4.8728292  -14.9648476   26.0005352
H   -5.4744833  -15.6791801   26.2223910
H   -4.6513412  -15.0103159   25.0680978
H   -4.0723301  -15.0458679   26.5246294
$end
$rem
jobtype sp
method PBE0 
basis 6-31G**
scf_guess fragmo
sym_ignore true
scf_print_frgm true
sts_dc trans
sts_trans_donor 1-6 
sts_trans_acceptor 1-6 
cis_n_roots 12
cis_singlets 1
cis_triplets 0
sts_dc_bsse 0
rpa 2
$end
--------------------------------------------------------------
 ----------------------------------------------------------------
             Standard Nuclear Orientation (Angstroms)
    I     Atom           X                Y                Z
 ----------------------------------------------------------------
    1      N      14.0720775000    14.4772325000    13.2163359000
    2      O       9.7109512000    18.5476720000    16.9529985000
    3      O      12.6699426000    19.5523330000    12.3564035000
    4      N      14.1978809000    12.5091885000    15.1593425000
    5      H      13.6499394000    13.1366178000    14.9463288000
    6      N      10.6968001000    15.7849540000    16.5189328000
    7      O      17.7504349000    10.6360029000    13.6758024000
    8      N      12.1814359000    15.9435682000    14.6317116000
    9      H      12.5053443000    15.1481361000    14.6714205000
   10      N      13.1221249000    11.7865154000    17.1941461000
   11      N      12.1227943000    13.8442504000    16.4446593000
   12      O      16.4108133000    12.1313491000    10.2097075000
   13      O      15.1190570000    10.0272714000    18.5288177000
   14      O      11.1290189000    10.3657151000    18.8545277000
   15      O       8.2990082000    15.1419389000    18.2749697000
   16      O      13.5562040000    16.9047300000     9.6341685000
   17      N      13.1459147000    16.6060343000    12.5358173000
   18      N      15.4965237000    12.5285272000    13.1505830000
   19      C      11.0143706000    14.5319951000    16.8417490000
   20      C      14.1170956000    11.7921351000    16.3321237000
   21      C      15.9650751000    11.1214508000    15.1360316000
   22      C      11.0953689000    17.8358760000    15.1810458000
   23      C      14.8723675000    13.5645586000    12.5930497000
   24      C      12.4922182000    16.8341150000    13.6409164000
   25      C      11.8319416000    18.0811204000    14.0187143000
   26      C      10.2214631000    13.7490278000    17.7741864000
   27      C      15.2977586000    10.9475056000    16.3546309000
   28      C      13.7878495000    15.4471905000    12.3009395000
   29      C      11.3070969000    16.4441565000    15.5508055000
   30      C      12.1288558000    12.6755315000    17.1472027000
   31      C      15.7878894000    10.0968648000    17.3722738000
   32      C      11.8793668000    19.3617450000    13.4496060000
   33      C      10.9226761000    12.5554385000    17.9638892000
   34      C      17.1459011000    10.4155106000    14.8643386000
   35      C       8.9442376000    19.5584112000    17.6118137000
   36      H       9.4508233000    20.3839259000    17.6632585000
   37      H       8.1255381000    19.7310394000    17.1214803000
   38      C      10.3528342000    18.8531819000    15.7951684000
   39      C      15.2363235000    12.1179618000    14.3756128000
   40      C      14.3593810000    15.1246861000    11.0045300000
   41      C      15.0539669000    13.9171689000    11.1762271000
   42      C      10.4278783000    11.5483961000    18.7950447000
   43      C      11.1261322000    20.3329703000    14.0524750000
   44      H      11.1215417000    21.1866756000    13.6859306000
   45      C      16.9661325000     9.4174721000    17.0587819000
   46      H      17.3312499000     8.8448704000    17.6938039000
   47      C      15.7139749000    13.3261514000    10.1105154000
   48      C      17.5980982000     9.5544504000    15.8707280000
   49      H      18.3676159000     9.0557279000    15.7163935000
   50      C      10.3763483000    20.0885228000    15.1826535000
   51      H       9.8702941000    20.7785556000    15.5427672000
   52      C      14.3384859000    15.7631269000     9.7584399000
   53      C       8.6321772000    19.0697299000    18.9670633000
   54      H       8.2624313000    18.1755258000    18.8979343000
   55      H       9.4568811000    19.0078014000    19.4734733000
   56      C       9.0115299000    13.9744433000    18.4301079000
   57      C      18.9503624000     9.9285128000    13.3515393000
   58      H      19.5718897000     9.9701792000    14.0942739000
   59      H      18.7477221000     8.9961052000    13.1746977000
   60      C       8.5615626000    12.9870674000    19.2757322000
   61      H       7.7659346000    13.1239969000    19.7387356000
   62      C      10.7456831000     9.4004821000    19.7917881000
   63      H      10.9055579000     9.7274130000    20.6904649000
   64      H       9.7994720000     9.2055198000    19.7001520000
   65      C      15.7161443000     9.4532460000    19.6551378000
   66      H      15.8120791000     8.4994678000    19.5104492000
   67      H      16.6046296000     9.8276419000    19.7676734000
   68      C       9.2425547000    11.8006900000    19.4622197000
   69      H       8.8995913000    11.1624303000    20.0457969000
   70      C      15.7371172000    13.9977373000     8.9128156000
   71      H      16.2209588000    13.6411817000     8.2022340000
   72      C      15.0565071000    15.1953969000     8.7359741000
   73      H      15.0882829000    15.6210433000     7.9096416000
   74      C      11.5619574000     8.1528774000    19.5377793000
   75      H      12.5043098000     8.3841001000    19.5056263000
   76      H      11.3162087000     7.7750646000    18.6776862000
   77      C      13.1587044000    20.8344929000    12.0573805000
   78      H      12.4076280000    21.4172194000    11.8660700000
   79      H      13.6124249000    21.1860035000    12.8386987000
   80      C      14.0485738000    20.8689550000    10.9657856000
   81      H      13.6168669000    20.3965673000    10.2359122000
   82      H      14.8240276000    20.3434580000    11.2165791000
   83      C       7.6674238000    19.9281068000    19.7290897000
   84      H       6.8486296000    20.0094367000    19.2146415000
   85      H       8.0457399000    20.8148554000    19.8223335000
   86      C      14.9650728000     9.6661315000    20.8608758000
   87      H      14.0426834000     9.4279437000    20.6759960000
   88      H      14.9800813000    10.6185596000    21.0489710000
   89      C       6.5831864000    16.3007567000    17.1086190000
   90      H       7.0632746000    17.1373790000    17.0218059000
   91      H       6.1201459000    16.1594752000    16.2678177000
   92      C      15.6267041000    10.9876648000    10.4400838000
   93      H      14.7328058000    11.1713958000    10.1105154000
   94      H      15.5578977000    10.8648484000    11.3998513000
   95      C      12.2346021000    18.4933919000     8.5301948000
   96      H      12.3991602000    19.0594225000     9.3002595000
   97      H      11.4025321000    18.0184458000     8.6893522000
   98      C      11.3324346000     7.1381324000    20.6132976000
   99      H      10.3858331000     6.9355137000    20.6534889000
  100      H      11.5874296000     7.5230023000    21.4653525000
  101      C      13.3497586000    17.4870061000     8.4273051000
  102      H      14.1617389000    17.9288152000     8.1331050000
  103      H      13.1190623000    16.8089684000     7.7713836000
  104      C      15.3510178000     8.9895681000    22.0601833000
  105      H      15.2307208000     8.0388870000    21.9122794000
  106      H      16.2998699000     9.1391348000    22.1904030000
  107      C      20.7262645000    10.0357673000    11.6361760000
  108      H      21.3901812000    10.0388088000    12.3435423000
  109      H      20.5674991000     9.1104399000    11.3950284000
  110      C      15.4689195000     8.5757414000    10.1908980000
  111      H      14.6112143000     8.5534716000     9.7391481000
  112      H      15.2768533000     8.5751951000    11.1426272000
  113      C      12.0829851000     5.8709485000    20.4187719000
  114      H      11.8791032000     5.2653169000    21.1357841000
  115      H      11.8295242000     5.4733359000    19.5827935000
  116      H      13.0251303000     6.0559573000    20.4139489000
  117      C      12.0693240000    19.3428850000     7.3485715000
  118      H      11.8390644000    18.7693987000     6.6026215000
  119      H      12.9319963000    19.7392755000     7.1492228000
  120      C      19.5528736000    10.5502129000    12.1522319000
  121      H      19.7093214000    11.4844120000    12.3564035000
  122      H      18.8886234000    10.5224830000    11.4448655000
  123      C      14.6614194000     9.3375091000    23.3286197000
  124      H      15.0088477000     8.7948156000    24.0408090000
  125      H      14.8113782000    10.2638327000    23.5295761000
  126      H      13.7189659000     9.1785619000    23.2337683000
  127      C       7.5527856000    15.2880186000    17.2066857000
  128      H       8.1550812000    15.4029118000    16.4559129000
  129      H       7.0928610000    14.4446305000    17.0684278000
  130      C      16.0262801000     9.8303456000     9.9079514000
  131      H      15.9623692000     9.9403089000     8.9465763000
  132      H      16.9727204000     9.7545513000    10.1105154000
  133      C      11.1206074000    20.3871893000     7.3935857000
  134      H      11.1446390000    20.8764371000     6.5688609000
  135      H      10.2432576000    20.0172803000     7.5205901000
  136      H      11.3280117000    20.9770242000     8.1218515000
  137      C      21.3083710000    10.7266657000    10.4561603000
  138      H      22.1006944000    10.2640489000    10.1732138000
  139      H      20.6691154000    10.7306814000     9.7407558000
  140      H      21.5324041000    11.6307558000    10.6908773000
  141      C       7.3328736000    19.3970613000    21.0891623000
  142      H       6.7146047000    19.9920334000    21.5216203000
  143      H       6.9345570000    18.5284529000    21.0055644000
  144      H       8.1344700000    19.3338715000    21.6132564000
  145      C      14.5263882000    22.0774159000    10.4416915000
  146      H      13.7586074000    22.5934452000    10.1523143000
  147      H      14.9380491000    22.5671254000    11.1699573000
  148      C      15.5040661000    22.0465294000     9.3082977000
  149      H      15.7196571000    22.9447873000     9.0478583000
  150      H      16.3037028000    21.5946549000     9.5880289000
  151      H      15.1165550000    21.5805353000     8.5639554000
  152      C       5.5565906000    16.5132914000    18.1182237000
  153      H       5.0851084000    15.6754736000    18.2532664000
  154      H       5.9936888000    16.7367130000    18.9542021000
  155      C       4.5198059000    17.6033945000    17.8095548000
  156      H       3.9077376000    17.6809213000    18.5442511000
  157      H       4.9675882000    18.4417210000    17.6761198000
  158      H       4.0372176000    17.3707472000    17.0137677000
  159      C      16.0664960000     7.3789297000     9.9240279000
  160      H      15.4648420000     6.6645972000    10.1458837000
  161      H      16.2879840000     7.3334613000     8.9915905000
  162      H      16.8669951000     7.2979093000    10.4481221000
  163      N      -6.8672478000    -7.8665447000    29.2928432000
  164      O     -11.2283740000    -3.7961053000    33.0295057000
  165      O      -8.2693826000    -2.7914443000    28.4329108000
  166      N      -6.7414444000    -9.8345887000    31.2358498000
  167      H      -7.2893858000    -9.2071594000    31.0228361000
  168      N     -10.2425252000    -6.5588233000    32.5954400000
  169      O      -3.1888904000   -11.7077744000    29.7523097000
  170      N      -8.7578894000    -6.4002091000    30.7082189000
  171      H      -8.4339809000    -7.1956411000    30.7479278000
  172      N      -7.8172004000   -10.5572619000    33.2706533000
  173      N      -8.8165310000    -8.4995269000    32.5211666000
  174      O      -4.5285119000   -10.2124282000    26.2862148000
  175      O      -5.8202683000   -12.3165058000    34.6053250000
  176      O      -9.8103064000   -11.9780621000    34.9310350000
  177      O     -12.6403170000    -7.2018384000    34.3514769000
  178      O      -7.3831212000    -5.4390472000    25.7106758000
  179      N      -7.7934106000    -5.7377430000    28.6123246000
  180      N      -5.4428015000    -9.8152501000    29.2270902000
  181      C      -9.9249546000    -7.8117822000    32.9182563000
  182      C      -6.8222296000   -10.5516421000    32.4086310000
  183      C      -4.9742501000   -11.2223265000    31.2125389000
  184      C      -9.8439564000    -4.5079013000    31.2575531000
  185      C      -6.0669578000    -8.7792186000    28.6695570000
  186      C      -8.4471070000    -5.5096623000    29.7174237000
  187      C      -9.1073836000    -4.2626568000    30.0952216000
  188      C     -10.7178621000    -8.5947495000    33.8506937000
  189      C      -5.6415667000   -11.3962717000    32.4311381000
  190      C      -7.1514758000    -6.8965868000    28.3774468000
  191      C      -9.6322283000    -5.8996208000    31.6273128000
  192      C      -8.8104695000    -9.6682458000    33.2237099000
  193      C      -5.1514359000   -12.2469125000    33.4487810000
  194      C      -9.0599585000    -2.9820322000    29.5261133000
  195      C     -10.0166492000    -9.7883388000    34.0403965000
  196      C      -3.7934241000   -11.9282666000    30.9408459000
  197      C     -11.9950876000    -2.7853661000    33.6883210000
  198      H     -11.4885019000    -1.9598514000    33.7397658000
  199      H     -12.8137872000    -2.6127379000    33.1979875000
  200      C     -10.5864911000    -3.4905954000    31.8716757000
  201      C      -5.7030018000   -10.2258155000    30.4521201000
  202      C      -6.5799443000    -7.2190911000    27.0810373000
  203      C      -5.8853584000    -8.4266084000    27.2527344000
  204      C     -10.5114469000   -10.7953812000    34.8715519000
  205      C      -9.8131930000    -2.0108069000    30.1289823000
  206      H      -9.8177836000    -1.1571017000    29.7624379000
  207      C      -3.9731927000   -12.9263052000    33.1352892000
  208      H      -3.6080754000   -13.4989068000    33.7703112000
  209      C      -5.2253504000    -9.0176258000    26.1870227000
  210      C      -3.3412270000   -12.7893268000    31.9472353000
  211      H      -2.5717094000   -13.2880493000    31.7929008000
  212      C     -10.5629769000    -2.2552544000    31.2591608000
  213      H     -11.0690311000    -1.5652217000    31.6192745000
  214      C      -6.6008394000    -6.5806503000    25.8349472000
  215      C     -12.3071480000    -3.2740473000    35.0435706000
  216      H     -12.6768940000    -4.1682515000    34.9744416000
  217      H     -11.4824441000    -3.3359758000    35.5499805000
  218      C     -11.9277954000    -8.3693339000    34.5066152000
  219      C      -1.9889628000   -12.4152644000    29.4280466000
  220      H      -1.3674355000   -12.3735981000    30.1707812000
  221      H      -2.1916031000   -13.3476720000    29.2512050000
  222      C     -12.3777626000    -9.3567098000    35.3522395000
  223      H     -13.1733907000    -9.2197803000    35.8152429000
  224      C     -10.1936422000   -12.9432951000    35.8682954000
  225      H     -10.0337673000   -12.6163643000    36.7669722000
  226      H     -11.1398533000   -13.1382574000    35.7766593000
  227      C      -5.2231809000   -12.8905312000    35.7316451000
  228      H      -5.1272461000   -13.8443095000    35.5869565000
  229      H      -4.3346956000   -12.5161354000    35.8441806000
  230      C     -11.6967705000   -10.5430872000    35.5387270000
  231      H     -12.0397339000   -11.1813470000    36.1223042000
  232      C      -5.2022081000    -8.3460399000    24.9893229000
  233      H      -4.7183664000    -8.7025956000    24.2787413000
  234      C      -5.8828181000    -7.1483803000    24.8124813000
  235      H      -5.8510423000    -6.7227340000    23.9861489000
  236      C      -9.3773678000   -14.1908999000    35.6142866000
  237      H      -8.4350154000   -13.9596772000    35.5821336000
  238      H      -9.6231166000   -14.5687126000    34.7541934000
  239      C      -7.7806208000    -1.5092843000    28.1338877000
  240      H      -8.5316973000    -0.9265579000    27.9425773000
  241      H      -7.3269004000    -1.1577737000    28.9152060000
  242      C      -6.8907514000    -1.4748223000    27.0422929000
  243      H      -7.3224583000    -1.9472099000    26.3124195000
  244      H      -6.1152976000    -2.0003193000    27.2930864000
  245      C     -13.2719014000    -2.4156704000    35.8055970000
  246      H     -14.0906957000    -2.3343405000    35.2911488000
  247      H     -12.8935854000    -1.5289219000    35.8988408000
  248      C      -5.9742525000   -12.6776458000    36.9373831000
  249      H      -6.8966419000   -12.9158335000    36.7525033000
  250      H      -5.9592440000   -11.7252177000    37.1254783000
  251      C     -14.3561389000    -6.0430206000    33.1851263000
  252      H     -13.8760507000    -5.2063982000    33.0983132000
  253      H     -14.8191793000    -6.1843021000    32.3443250000
  254      C      -5.3126212000   -11.3561125000    26.5165911000
  255      H      -6.2065195000   -11.1723815000    26.1870227000
  256      H      -5.3814275000   -11.4789289000    27.4763586000
  257      C      -8.7047232000    -3.8503854000    24.6067020000
  258      H      -8.5401650000    -3.2843547000    25.3767667000
  259      H      -9.5367932000    -4.3253315000    24.7658595000
  260      C      -9.6068906000   -15.2056448000    36.6898049000
  261      H     -10.5534921000   -15.4082636000    36.7299962000
  262      H      -9.3518956000   -14.8207749000    37.5418598000
  263      C      -7.5895667000    -4.8567711000    24.5038124000
  264      H      -6.7775864000    -4.4149620000    24.2096123000
  265      H      -7.8202630000    -5.5348088000    23.8478909000
  266      C      -5.5883074000   -13.3542092000    38.1366906000
  267      H      -5.7086045000   -14.3048903000    37.9887867000
  268      H      -4.6394553000   -13.2046425000    38.2669103000
  269      C      -0.2130608000   -12.3080099000    27.7126832000
  270      H       0.4508560000   -12.3049685000    28.4200496000
  271      H      -0.3718261000   -13.2333373000    27.4715356000
  272      C      -5.4704057000   -13.7680358000    26.2674052000
  273      H      -6.3281110000   -13.7903057000    25.8156554000
  274      H      -5.6624720000   -13.7685822000    27.2191345000
  275      C      -8.8563402000   -16.4728288000    36.4952792000
  276      H      -9.0602221000   -17.0784603000    37.2122914000
  277      H      -9.1098011000   -16.8704414000    35.6593008000
  278      H      -7.9141949000   -16.2878200000    36.4904562000
  279      C      -8.8700013000    -3.0008923000    23.4250788000
  280      H      -9.1002609000    -3.5743786000    22.6791288000
  281      H      -8.0073290000    -2.6045018000    23.2257301000
  282      C      -1.3864516000   -11.7935643000    28.2287391000
  283      H      -1.2300038000   -10.8593653000    28.4329108000
  284      H      -2.0507019000   -11.8212942000    27.5213728000
  285      C      -6.2779058000   -13.0062682000    39.4051270000
  286      H      -5.9304775000   -13.5489617000    40.1173163000
  287      H      -6.1279470000   -12.0799446000    39.6060833000
  288      H      -7.2203593000   -13.1652153000    39.3102756000
  289      C     -13.3865396000    -7.0557587000    33.2831930000
  290      H     -12.7842441000    -6.9408654000    32.5324201000
  291      H     -13.8464643000    -7.8991468000    33.1449351000
  292      C      -4.9130451000   -12.5134317000    25.9844587000
  293      H      -4.9769561000   -12.4034683000    25.0230836000
  294      H      -3.9666048000   -12.5892259000    26.1870227000
  295      C      -9.8187178000    -1.9565880000    23.4700930000
  296      H      -9.7946863000    -1.4673401000    22.6453682000
  297      H     -10.6960676000    -2.3264969000    23.5970974000
  298      H      -9.6113136000    -1.3667531000    24.1983588000
  299      C       0.3690457000   -11.6171116000    26.5326676000
  300      H       1.1613691000   -12.0797284000    26.2497211000
  301      H      -0.2702099000   -11.6130959000    25.8172630000
  302      H       0.5930789000   -10.7130215000    26.7673846000
  303      C     -13.6064517000    -2.9467160000    37.1656695000
  304      H     -14.2247205000    -2.3517439000    37.5981276000
  305      H     -14.0047683000    -3.8153244000    37.0820717000
  306      H     -12.8048553000    -3.0099057000    37.6897637000
  307      C      -6.4129371000    -0.2663613000    26.5181988000
  308      H      -7.1807178000     0.2496680000    26.2288216000
  309      H      -6.0012762000     0.2233481000    27.2464645000
  310      C      -5.4352592000    -0.2972478000    25.3848050000
  311      H      -5.2196682000     0.6010100000    25.1243656000
  312      H      -4.6356225000    -0.7491223000    25.6645362000
  313      H      -5.8227702000    -0.7632419000    24.6404627000
  314      C     -15.3827346000    -5.8304859000    34.1947310000
  315      H     -15.8542168000    -6.6683036000    34.3297736000
  316      H     -14.9456365000    -5.6070643000    35.0307094000
  317      C     -16.4195193000    -4.7403828000    33.8860620000
  318      H     -17.0315876000    -4.6628560000    34.6207584000
  319      H     -15.9717370000    -3.9020563000    33.7526270000
  320      H     -16.9021076000    -4.9730300000    33.0902749000
  321      C      -4.8728292000   -14.9648476000    26.0005352000
  322      H      -5.4744833000   -15.6791801000    26.2223910000
  323      H      -4.6513412000   -15.0103159000    25.0680978000
  324      H      -4.0723301000   -15.0458679000    26.5246294000
 ----------------------------------------------------------------
 Nuclear Repulsion Energy =       33244.23976603 hartrees
 There are      586 alpha and      586 beta electrons
 Requested basis set is 6-31G(d,p)
 There are 1132 shells and 3220 basis functions

 Total QAlloc Memory Limit   2000 MB
 Mega-Array Size       188 MB
 MEM_STATIC part       192 MB

 A cutoff of  1.0D-12 yielded  70332 shell pairs
 There are    620080 function pairs
 Smallest overlap matrix eigenvalue = 1.72E-04

 Scale SEOQF with 1.000000e-03/1.000000e-03/1.000000e-03

 Standard Electronic Orientation quadrupole field applied
 Nucleus-field energy     =    -0.0000005797 hartrees
 Can only be proccessed by the old fragmo guess code
 Guess MOs from converged MOs on fragments

QCSCRATCH   is /scratch/sanghita
QCFILEPREF  is /scratch/sanghita/qchem47523/

-----------------------------------------------------------------
 SCF on fragment 1 out of 2 in state 1
-----------------------------------------------------------------

/home/chance/software/ccats2023/exe/qcprog.exe /scratch/sanghita/qchem47523/Frg1s1.input /scratch/sanghita/qchem47523/Frg1s1/
                  Welcome to Q-Chem
     A Quantum Leap Into The Future Of Chemistry


 Q-Chem 6.1 (devel), Q-Chem, Inc., Pleasanton, CA (2022)

 E. Epifanovsky,  A. T. B. Gilbert,  Xintian Feng,  Joonho Lee,  Yuezhi Mao,  
 N. Mardirossian,  P. Pokhilko,  A. White,  M. Wormit,  M. P. Coons,  
 A. L. Dempwolff,  Zhengting Gan,  D. Hait,  P. R. Horn,  L. D. Jacobson,  
 I. Kaliman,  J. Kussmann,  A. W. Lange,  Ka Un Lao,  D. S. Levine,  Jie Liu,  
 S. C. McKenzie,  A. F. Morrison,  K. Nanda,  F. Plasser,  D. R. Rehn,  
 M. L. Vidal,  Zhi-Qiang You,  Ying Zhu,  B. Alam,  B. Albrecht,  
 A. Aldossary,  E. Alguire,  J. H. Andersen,  V. Athavale,  D. Barton,  
 K. Begam,  A. Behn,  N. Bellonzi,  Y. A. Bernard,  E. J. Berquist,  
 H. Burton,  A. Carreras,  K. Carter-Fenk,  Mathew Chow,  Romit Chakraborty,  
 Chandrima Chakravarty,  Junhan Chen,  A. D. Chien,  K. D. Closser,  
 V. Cofer-Shabica,  L. Cunha,  S. Dasgupta,  Jia Deng,  M. de Wergifosse,  
 M. Diedenhofen,  Hainam Do,  S. Ehlert,  Po-Tung Fang,  S. Fatehi,  
 Qingguo Feng,  T. Friedhoff,  Thomas Froitzheim,  B. Ganoe,  J. Gayvert,  
 Qinghui Ge,  G. Gidofalvi,  M. Goldey,  Montgomery Gray,  J. Gomes,  
 C. Gonzalez-Espinoza,  S. Gulania,  A. Gunina,  J. A. Gyamfi,  
 M. W. D. Hanson-Heine,  P. H. P. Harbach,  A. W. Hauser,  M. F. Herbst,  
 M. Hernandez Vera,  M. Hodecker,  Z. C. Holden,  S. Houck,  Xunkun Huang,  
 Kerwin Hui,  B. C. Huynh,  K. Ikeda,  M. Ivanov,  Hyunjun Ji,  Zuxin Jin,  
 Hanjie Jiang,  Subrata Jana,  B. Kaduk,  S. Kaehler,  R. Kang,  
 K. Khistyaev,  Jaehoon Kim,  Yongbin Kim,  P. Klunzinger,  Z. Koczor-Benda,  
 Joong Hoon Koh,  D. Kosenkov,  Saikiran Kotaru,  L. Koulias,  T. Kowalczyk,  
 C. M. Krauter,  K. Kue,  A. Kunitsa,  T. Kus,  A. Landau,  K. V. Lawler,  
 D. Lefrancois,  S. Lehtola,  Rain Li,  Shaozhi Li,  Yi-Pei Li,  
 Jiashu Liang,  M. Liebenthal,  Hung-Hsuan Lin,  You-Sheng Lin,  Fenglai Liu,  
 Kuan-Yu Liu,  M. Loipersberger,  A. Luenser,  C. Malbon,  A. Manjanath,  
 P. Manohar,  E. Mansoor,  S. F. Manzer,  Shan-Ping Mao,  A. V. Marenich,  
 T. Markovich,  S. Mason,  F. Matz,  S. A. Maurer,  P. F. McLaughlin,  
 M. F. S. J. Menger,  J.-M. Mewes,  S. A. Mewes,  P. Morgante,  
 Mohammad Mostafanejad,  J. W. Mullinax,  K. J. Oosterbaan,  G. Paran,  
 V. Parravicini,  Alexander C. Paul,  Suranjan K. Paul,  F. Pavosevic,  
 Zheng Pei,  S. Prager,  E. I. Proynov,  E. Ramos,  B. Rana,  A. E. Rask,  
 A. Rettig,  R. M. Richard,  F. Rob,  E. Rossomme,  T. Scheele,  M. Scheurer,  
 M. Schneider,  P. E. Schneider,  N. Sergueev,  S. M. Sharada,  
 Hengyuan Shen,  W. Skomorowski,  D. W. Small,  C. J. Stein,  Yingli Su,  
 Yu-Chuan Su,  E. J. Sundstrom,  Zhen Tao,  J. Thirman,  Hung-Yi Tsai,  
 T. Tsuchimochi,  N. M. Tubman,  C. Utku,  S. P. Veccham,  O. Vydrov,  
 J. Wenzel,  Jonathan Wong,  J. Witte,  A. Yamada,  Chou-Hsun Yang,  Kun Yao,  
 S. Yeganeh,  S. R. Yost,  A. Zech,  F. Zeller,  Igor Ying Zhang,  
 Xing Zhang,  Yu Zhang,  D. Zuev,  A. Aspuru-Guzik,  A. T. Bell,  
 N. A. Besley,  K. B. Bravaya,  B. R. Brooks,  D. Casanova,  Jeng-Da Chai,  
 Hsing-Ta Chen,  S. Coriani,  C. J. Cramer,  A. E. DePrince, III,  
 R. A. DiStasio Jr.,  A. Dreuw,  B. D. Dunietz,  T. R. Furlani,  
 W. A. Goddard III,  S. Grimme,  S. Hammes-Schiffer,  T. Head-Gordon,  
 W. J. Hehre,  Chao-Ping Hsu,  T.-C. Jagau,  Yousung Jung,  A. Klamt,  
 Jing Kong,  D. S. Lambrecht,  Xiangyuan Li,  WanZhen Liang,  N. J. Mayhall,  
 C. W. McCurdy,  J. B. Neaton,  T. Neudecker,  C. Ochsenfeld,  
 J. A. Parkhill,  R. Peverati,  V. A. Rassolov,  Haisheng Ren,  Yihan Shao,  
 L. V. Slipchenko,  R. P. Steele,  J. E. Subotnik,  A. J. W. Thom,  
 A. Tkatchenko,  D. G. Truhlar,  T. Van Voorhis,  Fan Wang,  
 T. A. Wesolowski,  K. B. Whaley,  H. L. Woodcock III,  P. M. Zimmerman,  
 S. Faraji,  P. M. W. Gill,  M. Head-Gordon,  J. M. Herbert,  A. I. Krylov

 Contributors to earlier versions of Q-Chem not listed above: 
 R. D. Adamson,  B. Austin,  R. Baer,  J. Baker,  G. J. O. Beran,  
 K. Brandhorst,  S. T. Brown,  E. F. C. Byrd,  Arup K. Chakraborty,  
 G. K. L. Chan,  Chun-Min Chang,  Yunqing Chen,  C.-L. Cheng,  
 Siu Hung Chien,  D. M. Chipman,  D. L. Crittenden,  H. Dachsel,  
 R. J. Doerksen,  A. D. Dutoi,  R. G. Edgar,  J. Fosso-Tande,  
 L. Fusti-Molnar,  D. Ghosh,  A. Ghysels,  A. Golubeva-Zadorozhnaya,  
 J. Gonthier,  M. S. Gordon,  S. R. Gwaltney,  G. Hawkins,  J. E. Herr,  
 A. Heyden,  S. Hirata,  E. G. Hohenstein,  G. Kedziora,  F. J. Keil,  
 C. Kelley,  Jihan Kim,  R. A. King,  R. Z. Khaliullin,  P. P. Korambath,  
 W. Kurlancheek,  A. Laurent,  A. M. Lee,  M. S. Lee,  S. V. Levchenko,  
 Ching Yeh Lin,  D. Liotard,  E. Livshits,  R. C. Lochan,  I. Lotan,  
 L. A. Martinez-Martinez,  P. E. Maslen,  N. Nair,  D. P. O'Neill,  
 D. Neuhauser,  E. Neuscamman,  C. M. Oana,  R. Olivares-Amaya,  R. Olson,  
 T. M. Perrine,  B. Peters,  P. A. Pieniazek,  A. Prociuk,  Y. M. Rhee,  
 J. Ritchie,  M. A. Rohrdanz,  E. Rosta,  N. J. Russ,  H. F. Schaefer III,  
 M. W. Schmidt,  N. E. Schultz,  S. Sharma,  N. Shenvi,  C. D. Sherrill,  
 A. C. Simmonett,  A. Sodt,  T. Stein,  D. Stuck,  K. S. Thanthiriwatte,  
 V. Vanovschi,  L. Vogt,  Tao Wang,  A. Warshel,  M. A. Watson,  
 C. F. Williams,  Q. Wu,  X. Xu,  Jun Yang,  W. Zhang,  Yan Zhao

   Please cite Q-Chem as follows:
  "Software for the frontiers of quantum chemistry:
   An overview of developments in the Q-Chem 5 package"
   J. Chem. Phys. 155, 084801 (2021)
   https://doi.org/10.1063/5.0055522 (open access)

 Q-Chem 6.1.0 for Intel X86 EM64T Linux

 Parts of Q-Chem use Armadillo 9.900.5 (Nocturnal Misbehaviour).
 http://arma.sourceforge.net/

 Q-Chem begins on Tue Feb 11 15:22:20 2025  

 Host: n042.cluster
0

     Scratch files written to /scratch/sanghita/qchem47523/Frg1s1//
 Processing $rem in /home/chance/software/ccats2023/config/preferences:
 Processing $rem in /home/sanghita/.qchemrc:

 Checking the input file for inconsistencies... 	...done.

--------------------------------------------------------------
User input:
--------------------------------------------------------------
$molecule
0 1
 7	14.0720775000	14.4772325000	13.2163359000
 8	9.7109512000	18.5476720000	16.9529985000
 8	12.6699426000	19.5523330000	12.3564035000
 7	14.1978809000	12.5091885000	15.1593425000
 1	13.6499394000	13.1366178000	14.9463288000
 7	10.6968001000	15.7849540000	16.5189328000
 8	17.7504349000	10.6360029000	13.6758024000
 7	12.1814359000	15.9435682000	14.6317116000
 1	12.5053443000	15.1481361000	14.6714205000
 7	13.1221249000	11.7865154000	17.1941461000
 7	12.1227943000	13.8442504000	16.4446593000
 8	16.4108133000	12.1313491000	10.2097075000
 8	15.1190570000	10.0272714000	18.5288177000
 8	11.1290189000	10.3657151000	18.8545277000
 8	8.2990082000	15.1419389000	18.2749697000
 8	13.5562040000	16.9047300000	9.6341685000
 7	13.1459147000	16.6060343000	12.5358173000
 7	15.4965237000	12.5285272000	13.1505830000
 6	11.0143706000	14.5319951000	16.8417490000
 6	14.1170956000	11.7921351000	16.3321237000
 6	15.9650751000	11.1214508000	15.1360316000
 6	11.0953689000	17.8358760000	15.1810458000
 6	14.8723675000	13.5645586000	12.5930497000
 6	12.4922182000	16.8341150000	13.6409164000
 6	11.8319416000	18.0811204000	14.0187143000
 6	10.2214631000	13.7490278000	17.7741864000
 6	15.2977586000	10.9475056000	16.3546309000
 6	13.7878495000	15.4471905000	12.3009395000
 6	11.3070969000	16.4441565000	15.5508055000
 6	12.1288558000	12.6755315000	17.1472027000
 6	15.7878894000	10.0968648000	17.3722738000
 6	11.8793668000	19.3617450000	13.4496060000
 6	10.9226761000	12.5554385000	17.9638892000
 6	17.1459011000	10.4155106000	14.8643386000
 6	8.9442376000	19.5584112000	17.6118137000
 1	9.4508233000	20.3839259000	17.6632585000
 1	8.1255381000	19.7310394000	17.1214803000
 6	10.3528342000	18.8531819000	15.7951684000
 6	15.2363235000	12.1179618000	14.3756128000
 6	14.3593810000	15.1246861000	11.0045300000
 6	15.0539669000	13.9171689000	11.1762271000
 6	10.4278783000	11.5483961000	18.7950447000
 6	11.1261322000	20.3329703000	14.0524750000
 1	11.1215417000	21.1866756000	13.6859306000
 6	16.9661325000	9.4174721000	17.0587819000
 1	17.3312499000	8.8448704000	17.6938039000
 6	15.7139749000	13.3261514000	10.1105154000
 6	17.5980982000	9.5544504000	15.8707280000
 1	18.3676159000	9.0557279000	15.7163935000
 6	10.3763483000	20.0885228000	15.1826535000
 1	9.8702941000	20.7785556000	15.5427672000
 6	14.3384859000	15.7631269000	9.7584399000
 6	8.6321772000	19.0697299000	18.9670633000
 1	8.2624313000	18.1755258000	18.8979343000
 1	9.4568811000	19.0078014000	19.4734733000
 6	9.0115299000	13.9744433000	18.4301079000
 6	18.9503624000	9.9285128000	13.3515393000
 1	19.5718897000	9.9701792000	14.0942739000
 1	18.7477221000	8.9961052000	13.1746977000
 6	8.5615626000	12.9870674000	19.2757322000
 1	7.7659346000	13.1239969000	19.7387356000
 6	10.7456831000	9.4004821000	19.7917881000
 1	10.9055579000	9.7274130000	20.6904649000
 1	9.7994720000	9.2055198000	19.7001520000
 6	15.7161443000	9.4532460000	19.6551378000
 1	15.8120791000	8.4994678000	19.5104492000
 1	16.6046296000	9.8276419000	19.7676734000
 6	9.2425547000	11.8006900000	19.4622197000
 1	8.8995913000	11.1624303000	20.0457969000
 6	15.7371172000	13.9977373000	8.9128156000
 1	16.2209588000	13.6411817000	8.2022340000
 6	15.0565071000	15.1953969000	8.7359741000
 1	15.0882829000	15.6210433000	7.9096416000
 6	11.5619574000	8.1528774000	19.5377793000
 1	12.5043098000	8.3841001000	19.5056263000
 1	11.3162087000	7.7750646000	18.6776862000
 6	13.1587044000	20.8344929000	12.0573805000
 1	12.4076280000	21.4172194000	11.8660700000
 1	13.6124249000	21.1860035000	12.8386987000
 6	14.0485738000	20.8689550000	10.9657856000
 1	13.6168669000	20.3965673000	10.2359122000
 1	14.8240276000	20.3434580000	11.2165791000
 6	7.6674238000	19.9281068000	19.7290897000
 1	6.8486296000	20.0094367000	19.2146415000
 1	8.0457399000	20.8148554000	19.8223335000
 6	14.9650728000	9.6661315000	20.8608758000
 1	14.0426834000	9.4279437000	20.6759960000
 1	14.9800813000	10.6185596000	21.0489710000
 6	6.5831864000	16.3007567000	17.1086190000
 1	7.0632746000	17.1373790000	17.0218059000
 1	6.1201459000	16.1594752000	16.2678177000
 6	15.6267041000	10.9876648000	10.4400838000
 1	14.7328058000	11.1713958000	10.1105154000
 1	15.5578977000	10.8648484000	11.3998513000
 6	12.2346021000	18.4933919000	8.5301948000
 1	12.3991602000	19.0594225000	9.3002595000
 1	11.4025321000	18.0184458000	8.6893522000
 6	11.3324346000	7.1381324000	20.6132976000
 1	10.3858331000	6.9355137000	20.6534889000
 1	11.5874296000	7.5230023000	21.4653525000
 6	13.3497586000	17.4870061000	8.4273051000
 1	14.1617389000	17.9288152000	8.1331050000
 1	13.1190623000	16.8089684000	7.7713836000
 6	15.3510178000	8.9895681000	22.0601833000
 1	15.2307208000	8.0388870000	21.9122794000
 1	16.2998699000	9.1391348000	22.1904030000
 6	20.7262645000	10.0357673000	11.6361760000
 1	21.3901812000	10.0388088000	12.3435423000
 1	20.5674991000	9.1104399000	11.3950284000
 6	15.4689195000	8.5757414000	10.1908980000
 1	14.6112143000	8.5534716000	9.7391481000
 1	15.2768533000	8.5751951000	11.1426272000
 6	12.0829851000	5.8709485000	20.4187719000
 1	11.8791032000	5.2653169000	21.1357841000
 1	11.8295242000	5.4733359000	19.5827935000
 1	13.0251303000	6.0559573000	20.4139489000
 6	12.0693240000	19.3428850000	7.3485715000
 1	11.8390644000	18.7693987000	6.6026215000
 1	12.9319963000	19.7392755000	7.1492228000
 6	19.5528736000	10.5502129000	12.1522319000
 1	19.7093214000	11.4844120000	12.3564035000
 1	18.8886234000	10.5224830000	11.4448655000
 6	14.6614194000	9.3375091000	23.3286197000
 1	15.0088477000	8.7948156000	24.0408090000
 1	14.8113782000	10.2638327000	23.5295761000
 1	13.7189659000	9.1785619000	23.2337683000
 6	7.5527856000	15.2880186000	17.2066857000
 1	8.1550812000	15.4029118000	16.4559129000
 1	7.0928610000	14.4446305000	17.0684278000
 6	16.0262801000	9.8303456000	9.9079514000
 1	15.9623692000	9.9403089000	8.9465763000
 1	16.9727204000	9.7545513000	10.1105154000
 6	11.1206074000	20.3871893000	7.3935857000
 1	11.1446390000	20.8764371000	6.5688609000
 1	10.2432576000	20.0172803000	7.5205901000
 1	11.3280117000	20.9770242000	8.1218515000
 6	21.3083710000	10.7266657000	10.4561603000
 1	22.1006944000	10.2640489000	10.1732138000
 1	20.6691154000	10.7306814000	9.7407558000
 1	21.5324041000	11.6307558000	10.6908773000
 6	7.3328736000	19.3970613000	21.0891623000
 1	6.7146047000	19.9920334000	21.5216203000
 1	6.9345570000	18.5284529000	21.0055644000
 1	8.1344700000	19.3338715000	21.6132564000
 6	14.5263882000	22.0774159000	10.4416915000
 1	13.7586074000	22.5934452000	10.1523143000
 1	14.9380491000	22.5671254000	11.1699573000
 6	15.5040661000	22.0465294000	9.3082977000
 1	15.7196571000	22.9447873000	9.0478583000
 1	16.3037028000	21.5946549000	9.5880289000
 1	15.1165550000	21.5805353000	8.5639554000
 6	5.5565906000	16.5132914000	18.1182237000
 1	5.0851084000	15.6754736000	18.2532664000
 1	5.9936888000	16.7367130000	18.9542021000
 6	4.5198059000	17.6033945000	17.8095548000
 1	3.9077376000	17.6809213000	18.5442511000
 1	4.9675882000	18.4417210000	17.6761198000
 1	4.0372176000	17.3707472000	17.0137677000
 6	16.0664960000	7.3789297000	9.9240279000
 1	15.4648420000	6.6645972000	10.1458837000
 1	16.2879840000	7.3334613000	8.9915905000
 1	16.8669951000	7.2979093000	10.4481221000
$end

$rem
METHOD		PBE0
BASIS		6-31G**
SYM_IGNORE		TRUE
SCF_PRINT_FRGM		TRUE
CIS_N_ROOTS		12
CIS_SINGLETS		1
CIS_TRIPLETS		0
RPA		2
!required keywords
JOBTYPE		SP
SYM_IGNORE		TRUE
SUBSYSTEM		TRUE
SAVE_SUBSYSTEM		TRUE
GEN_SCFMAN		0
ECP		0
$end
--------------------------------------------------------------
 ----------------------------------------------------------------
             Standard Nuclear Orientation (Angstroms)
    I     Atom           X                Y                Z
 ----------------------------------------------------------------
    1      N      14.0720775000    14.4772325000    13.2163359000
    2      O       9.7109512000    18.5476720000    16.9529985000
    3      O      12.6699426000    19.5523330000    12.3564035000
    4      N      14.1978809000    12.5091885000    15.1593425000
    5      H      13.6499394000    13.1366178000    14.9463288000
    6      N      10.6968001000    15.7849540000    16.5189328000
    7      O      17.7504349000    10.6360029000    13.6758024000
    8      N      12.1814359000    15.9435682000    14.6317116000
    9      H      12.5053443000    15.1481361000    14.6714205000
   10      N      13.1221249000    11.7865154000    17.1941461000
   11      N      12.1227943000    13.8442504000    16.4446593000
   12      O      16.4108133000    12.1313491000    10.2097075000
   13      O      15.1190570000    10.0272714000    18.5288177000
   14      O      11.1290189000    10.3657151000    18.8545277000
   15      O       8.2990082000    15.1419389000    18.2749697000
   16      O      13.5562040000    16.9047300000     9.6341685000
   17      N      13.1459147000    16.6060343000    12.5358173000
   18      N      15.4965237000    12.5285272000    13.1505830000
   19      C      11.0143706000    14.5319951000    16.8417490000
   20      C      14.1170956000    11.7921351000    16.3321237000
   21      C      15.9650751000    11.1214508000    15.1360316000
   22      C      11.0953689000    17.8358760000    15.1810458000
   23      C      14.8723675000    13.5645586000    12.5930497000
   24      C      12.4922182000    16.8341150000    13.6409164000
   25      C      11.8319416000    18.0811204000    14.0187143000
   26      C      10.2214631000    13.7490278000    17.7741864000
   27      C      15.2977586000    10.9475056000    16.3546309000
   28      C      13.7878495000    15.4471905000    12.3009395000
   29      C      11.3070969000    16.4441565000    15.5508055000
   30      C      12.1288558000    12.6755315000    17.1472027000
   31      C      15.7878894000    10.0968648000    17.3722738000
   32      C      11.8793668000    19.3617450000    13.4496060000
   33      C      10.9226761000    12.5554385000    17.9638892000
   34      C      17.1459011000    10.4155106000    14.8643386000
   35      C       8.9442376000    19.5584112000    17.6118137000
   36      H       9.4508233000    20.3839259000    17.6632585000
   37      H       8.1255381000    19.7310394000    17.1214803000
   38      C      10.3528342000    18.8531819000    15.7951684000
   39      C      15.2363235000    12.1179618000    14.3756128000
   40      C      14.3593810000    15.1246861000    11.0045300000
   41      C      15.0539669000    13.9171689000    11.1762271000
   42      C      10.4278783000    11.5483961000    18.7950447000
   43      C      11.1261322000    20.3329703000    14.0524750000
   44      H      11.1215417000    21.1866756000    13.6859306000
   45      C      16.9661325000     9.4174721000    17.0587819000
   46      H      17.3312499000     8.8448704000    17.6938039000
   47      C      15.7139749000    13.3261514000    10.1105154000
   48      C      17.5980982000     9.5544504000    15.8707280000
   49      H      18.3676159000     9.0557279000    15.7163935000
   50      C      10.3763483000    20.0885228000    15.1826535000
   51      H       9.8702941000    20.7785556000    15.5427672000
   52      C      14.3384859000    15.7631269000     9.7584399000
   53      C       8.6321772000    19.0697299000    18.9670633000
   54      H       8.2624313000    18.1755258000    18.8979343000
   55      H       9.4568811000    19.0078014000    19.4734733000
   56      C       9.0115299000    13.9744433000    18.4301079000
   57      C      18.9503624000     9.9285128000    13.3515393000
   58      H      19.5718897000     9.9701792000    14.0942739000
   59      H      18.7477221000     8.9961052000    13.1746977000
   60      C       8.5615626000    12.9870674000    19.2757322000
   61      H       7.7659346000    13.1239969000    19.7387356000
   62      C      10.7456831000     9.4004821000    19.7917881000
   63      H      10.9055579000     9.7274130000    20.6904649000
   64      H       9.7994720000     9.2055198000    19.7001520000
   65      C      15.7161443000     9.4532460000    19.6551378000
   66      H      15.8120791000     8.4994678000    19.5104492000
   67      H      16.6046296000     9.8276419000    19.7676734000
   68      C       9.2425547000    11.8006900000    19.4622197000
   69      H       8.8995913000    11.1624303000    20.0457969000
   70      C      15.7371172000    13.9977373000     8.9128156000
   71      H      16.2209588000    13.6411817000     8.2022340000
   72      C      15.0565071000    15.1953969000     8.7359741000
   73      H      15.0882829000    15.6210433000     7.9096416000
   74      C      11.5619574000     8.1528774000    19.5377793000
   75      H      12.5043098000     8.3841001000    19.5056263000
   76      H      11.3162087000     7.7750646000    18.6776862000
   77      C      13.1587044000    20.8344929000    12.0573805000
   78      H      12.4076280000    21.4172194000    11.8660700000
   79      H      13.6124249000    21.1860035000    12.8386987000
   80      C      14.0485738000    20.8689550000    10.9657856000
   81      H      13.6168669000    20.3965673000    10.2359122000
   82      H      14.8240276000    20.3434580000    11.2165791000
   83      C       7.6674238000    19.9281068000    19.7290897000
   84      H       6.8486296000    20.0094367000    19.2146415000
   85      H       8.0457399000    20.8148554000    19.8223335000
   86      C      14.9650728000     9.6661315000    20.8608758000
   87      H      14.0426834000     9.4279437000    20.6759960000
   88      H      14.9800813000    10.6185596000    21.0489710000
   89      C       6.5831864000    16.3007567000    17.1086190000
   90      H       7.0632746000    17.1373790000    17.0218059000
   91      H       6.1201459000    16.1594752000    16.2678177000
   92      C      15.6267041000    10.9876648000    10.4400838000
   93      H      14.7328058000    11.1713958000    10.1105154000
   94      H      15.5578977000    10.8648484000    11.3998513000
   95      C      12.2346021000    18.4933919000     8.5301948000
   96      H      12.3991602000    19.0594225000     9.3002595000
   97      H      11.4025321000    18.0184458000     8.6893522000
   98      C      11.3324346000     7.1381324000    20.6132976000
   99      H      10.3858331000     6.9355137000    20.6534889000
  100      H      11.5874296000     7.5230023000    21.4653525000
  101      C      13.3497586000    17.4870061000     8.4273051000
  102      H      14.1617389000    17.9288152000     8.1331050000
  103      H      13.1190623000    16.8089684000     7.7713836000
  104      C      15.3510178000     8.9895681000    22.0601833000
  105      H      15.2307208000     8.0388870000    21.9122794000
  106      H      16.2998699000     9.1391348000    22.1904030000
  107      C      20.7262645000    10.0357673000    11.6361760000
  108      H      21.3901812000    10.0388088000    12.3435423000
  109      H      20.5674991000     9.1104399000    11.3950284000
  110      C      15.4689195000     8.5757414000    10.1908980000
  111      H      14.6112143000     8.5534716000     9.7391481000
  112      H      15.2768533000     8.5751951000    11.1426272000
  113      C      12.0829851000     5.8709485000    20.4187719000
  114      H      11.8791032000     5.2653169000    21.1357841000
  115      H      11.8295242000     5.4733359000    19.5827935000
  116      H      13.0251303000     6.0559573000    20.4139489000
  117      C      12.0693240000    19.3428850000     7.3485715000
  118      H      11.8390644000    18.7693987000     6.6026215000
  119      H      12.9319963000    19.7392755000     7.1492228000
  120      C      19.5528736000    10.5502129000    12.1522319000
  121      H      19.7093214000    11.4844120000    12.3564035000
  122      H      18.8886234000    10.5224830000    11.4448655000
  123      C      14.6614194000     9.3375091000    23.3286197000
  124      H      15.0088477000     8.7948156000    24.0408090000
  125      H      14.8113782000    10.2638327000    23.5295761000
  126      H      13.7189659000     9.1785619000    23.2337683000
  127      C       7.5527856000    15.2880186000    17.2066857000
  128      H       8.1550812000    15.4029118000    16.4559129000
  129      H       7.0928610000    14.4446305000    17.0684278000
  130      C      16.0262801000     9.8303456000     9.9079514000
  131      H      15.9623692000     9.9403089000     8.9465763000
  132      H      16.9727204000     9.7545513000    10.1105154000
  133      C      11.1206074000    20.3871893000     7.3935857000
  134      H      11.1446390000    20.8764371000     6.5688609000
  135      H      10.2432576000    20.0172803000     7.5205901000
  136      H      11.3280117000    20.9770242000     8.1218515000
  137      C      21.3083710000    10.7266657000    10.4561603000
  138      H      22.1006944000    10.2640489000    10.1732138000
  139      H      20.6691154000    10.7306814000     9.7407558000
  140      H      21.5324041000    11.6307558000    10.6908773000
  141      C       7.3328736000    19.3970613000    21.0891623000
  142      H       6.7146047000    19.9920334000    21.5216203000
  143      H       6.9345570000    18.5284529000    21.0055644000
  144      H       8.1344700000    19.3338715000    21.6132564000
  145      C      14.5263882000    22.0774159000    10.4416915000
  146      H      13.7586074000    22.5934452000    10.1523143000
  147      H      14.9380491000    22.5671254000    11.1699573000
  148      C      15.5040661000    22.0465294000     9.3082977000
  149      H      15.7196571000    22.9447873000     9.0478583000
  150      H      16.3037028000    21.5946549000     9.5880289000
  151      H      15.1165550000    21.5805353000     8.5639554000
  152      C       5.5565906000    16.5132914000    18.1182237000
  153      H       5.0851084000    15.6754736000    18.2532664000
  154      H       5.9936888000    16.7367130000    18.9542021000
  155      C       4.5198059000    17.6033945000    17.8095548000
  156      H       3.9077376000    17.6809213000    18.5442511000
  157      H       4.9675882000    18.4417210000    17.6761198000
  158      H       4.0372176000    17.3707472000    17.0137677000
  159      C      16.0664960000     7.3789297000     9.9240279000
  160      H      15.4648420000     6.6645972000    10.1458837000
  161      H      16.2879840000     7.3334613000     8.9915905000
  162      H      16.8669951000     7.2979093000    10.4481221000
 ----------------------------------------------------------------
 Nuclear Repulsion Energy =       13987.39809617 hartrees
 There are      293 alpha and      293 beta electrons
 Requested basis set is 6-31G(d,p)
 There are 566 shells and 1610 basis functions

 Total QAlloc Memory Limit   2000 MB
 Mega-Array Size       188 MB
 MEM_STATIC part       192 MB

 A cutoff of  1.0D-12 yielded  35166 shell pairs
 There are    310040 function pairs
 Smallest overlap matrix eigenvalue = 1.72E-04

 Scale SEOQF with 1.000000e-03/1.000000e-03/1.000000e-03

 Standard Electronic Orientation quadrupole field applied
 Nucleus-field energy     =    -0.0000000199 hartrees
 Guess from superposition of atomic densities
 Warning:  Energy on first SCF cycle will be non-variational
 SAD guess density has 586.000001 electrons
 A restricted hybrid HF-DFT SCF calculation will be
 performed using Pulay DIIS extrapolation
 Exchange:     0.2500 Hartree-Fock + 0.7500 PBE
 Correlation:  1.0000 PBE
 Using SG-1 standard quadrature grid
 SCF converges when DIIS error is below 1.0E-08
 using 8 threads for integral computing
 -------------------------------------------------------
 OpenMP Integral computing Module                
 Release: version 1.0, May 2013, Q-Chem Inc. Pittsburgh 
 -------------------------------------------------------
 ---------------------------------------
  Cycle       Energy         DIIS Error
 ---------------------------------------
    1   -3551.6902608683      2.15E-02
    2   -3521.3326155616      2.06E-03
    3   -3521.3886153624      2.05E-03
    4   -3522.6137374846      4.24E-04
    5   -3522.6642554595      1.71E-04
    6   -3522.6733972595      5.15E-05
    7   -3522.6740645282      2.42E-05
    8   -3522.6742401682      1.02E-05
    9   -3522.6742781098      3.90E-06
   10   -3522.6742840255      7.56E-07
   11   -3522.6742841807      3.15E-07
   12   -3522.6742842065      1.70E-07
   13   -3522.6742842157      7.27E-08
   14   -3522.6742842176      2.62E-08
   15   -3522.6742842184      1.30E-08
   16   -3522.6742842188      4.93E-09 Convergence criterion met
 ---------------------------------------
 SCF time:  CPU 5918.77 s  wall 784.49 s
 SCF   energy in the final basis set = -3522.67428422
 Total energy in the final basis set = -3522.67428422

 CIS/TDDFT memory preview:
 --------------------------
	NOV = NOa*NVa + NOb*NVb = 771762
	NRoots = 12, max iter = 30, max vectors = 360
	Size of each subspace vector: 5.89 Mb
	Davidson algorithm may add up to 2 x NOV x NRoots (= 141.3 Mb) per iteration
	Max memory = 4239.4 Mb (worst case scenario)
	Currently available memory = 2000.0 Mb

	In case of problems:
	(a) increase memory (MEM_TOTAL = 4240 can hold 360 subspace vectors), or
	(b) request fewer states (CIS_N_ROOTS = 5 will fit in current MEM_TOTAL), or
	(c) reduce MAX_CIS_SUBSPACE (= 169 will fit in current MEM_TOTAL).
	Reducing MAX_CIS_SUBSPACE may hamper convergence.

 CIS energy converged when residual is below 10e- 6

 Direct TDDFT calculation will be performed
 Exchange:     0.2500 Hartree-Fock + 0.7500 PBE
 Correlation:  1.0000 PBE
 Using SG-1 standard quadrature grid
 ---------------------------------------------------
 Iter    Rts Conv    Rts Left    Ttl Dev     Max Dev
 ---------------------------------------------------
   1         0          12      0.002152    0.000288
   2         0          12      0.000629    0.000131
   3         0          12      0.000281    0.000066
   4         0          12      0.000220    0.000037
   5         0          12      0.000132    0.000043
   6         0          12      0.000055    0.000015
   7         0          12      0.000045    0.000015
   8         5           7      0.000025    0.000012
   9         9           3      0.000020    0.000012
  10        11           1      0.000024    0.000017
  11        11           1      0.000015    0.000008
  12        11           1      0.000013    0.000006
  13        11           1      0.000010    0.000003
  14        11           1      0.000008    0.000001
  15        11           1      0.000008    0.000001
  16        12           0      0.000007    0.000001    Roots Converged
 ---------------------------------------------------
 
 ---------------------------------------------------
             TDDFT Excitation Energies              
 ---------------------------------------------------

 Excited state   1: excitation energy (eV) =    1.8131
 Total energy for state  1:                 -3522.60765252 au
    Multiplicity: Singlet 
    Trans. Mom.:  1.7490 X   0.2282 Y  -2.5881 Z
    Strength   :     0.4357307225
    X: D(  293) --> V(    1) amplitude =  0.9861

 Excited state   2: excitation energy (eV) =    1.8861
 Total energy for state  2:                 -3522.60497292 au
    Multiplicity: Singlet 
    Trans. Mom.:  1.4681 X  -2.7589 Y   0.7937 Z
    Strength   :     0.4804158948
    X: D(  293) --> V(    2) amplitude =  0.9716

 Excited state   3: excitation energy (eV) =    2.6746
 Total energy for state  3:                 -3522.57599266 au
    Multiplicity: Singlet 
    Trans. Mom.:  0.2005 X   0.0370 Y  -0.3570 Z
    Strength   :     0.0110769840
    X: D(  292) --> V(    1) amplitude =  0.9880

 Excited state   4: excitation energy (eV) =    2.7743
 Total energy for state  4:                 -3522.57232924 au
    Multiplicity: Singlet 
    Trans. Mom.: -0.4956 X  -0.3629 Y   1.1119 Z
    Strength   :     0.1096716366
    X: D(  291) --> V(    1) amplitude =  0.9840

 Excited state   5: excitation energy (eV) =    2.8774
 Total energy for state  5:                 -3522.56854075 au
    Multiplicity: Singlet 
    Trans. Mom.: -0.7298 X   0.0623 Y  -0.2608 Z
    Strength   :     0.0426201955
    X: D(  290) --> V(    1) amplitude =  0.6036
    X: D(  292) --> V(    2) amplitude =  0.7780

 Excited state   6: excitation energy (eV) =    2.9265
 Total energy for state  6:                 -3522.56673708 au
    Multiplicity: Singlet 
    Trans. Mom.:  0.6340 X  -1.2452 Y   0.0076 Z
    Strength   :     0.1399889400
    X: D(  290) --> V(    1) amplitude =  0.3201
    X: D(  291) --> V(    2) amplitude =  0.9109

 Excited state   7: excitation energy (eV) =    2.9836
 Total energy for state  7:                 -3522.56463852 au
    Multiplicity: Singlet 
    Trans. Mom.: -0.1154 X   0.2108 Y  -0.0338 Z
    Strength   :     0.0043068721
    X: D(  290) --> V(    1) amplitude =  0.6901
    X: D(  291) --> V(    2) amplitude = -0.3795
    X: D(  292) --> V(    2) amplitude = -0.5668

 Excited state   8: excitation energy (eV) =    3.0376
 Total energy for state  8:                 -3522.56265376 au
    Multiplicity: Singlet 
    Trans. Mom.:  0.2088 X  -0.3441 Y   0.1222 Z
    Strength   :     0.0131675749
    X: D(  290) --> V(    2) amplitude =  0.9768

 Excited state   9: excitation energy (eV) =    3.1217
 Total energy for state  9:                 -3522.55956317 au
    Multiplicity: Singlet 
    Trans. Mom.: -0.2694 X   0.8555 Y  -0.4815 Z
    Strength   :     0.0792561219
    X: D(  288) --> V(    1) amplitude =  0.2737
    X: D(  289) --> V(    1) amplitude =  0.8596

 Excited state  10: excitation energy (eV) =    3.2142
 Total energy for state 10:                 -3522.55616437 au
    Multiplicity: Singlet 
    Trans. Mom.: -0.4943 X   0.7625 Y   0.5747 Z
    Strength   :     0.0910335265
    X: D(  288) --> V(    1) amplitude =  0.6577
    X: D(  289) --> V(    1) amplitude = -0.2693
    X: D(  289) --> V(    2) amplitude = -0.5181
    X: D(  293) --> V(    3) amplitude =  0.3918

 Excited state  11: excitation energy (eV) =    3.2205
 Total energy for state 11:                 -3522.55593293 au
    Multiplicity: Singlet 
    Trans. Mom.:  0.8788 X   0.2233 Y   0.2487 Z
    Strength   :     0.0697460448
    X: D(  288) --> V(    1) amplitude = -0.2782
    X: D(  293) --> V(    3) amplitude =  0.8947

 Excited state  12: excitation energy (eV) =    3.3357
 Total energy for state 12:                 -3522.55169920 au
    Multiplicity: Singlet 
    Trans. Mom.:  0.0576 X   0.1240 Y   0.1137 Z
    Strength   :     0.0025849374
    X: D(  287) --> V(    1) amplitude = -0.8975
    X: D(  289) --> V(    2) amplitude =  0.2962
 
 ---------------------------------------------------
  SETman timing summary (seconds)
  CPU time             32243.48s
  System time              0.02s
  Wall time             4247.23s
 
 --------------------------------------------------------------
 
                    Orbital Energies (a.u.)
 --------------------------------------------------------------
 
 Alpha MOs
 -- Occupied --
-19.2482 -19.2475 -19.2441 -19.2382 -19.2380 -19.2315 -19.2158 -19.2120
-14.4243 -14.4233 -14.3852 -14.3851 -14.3839 -14.3823 -14.3710 -14.3703
-10.3088 -10.3081 -10.3077 -10.3062 -10.2959 -10.2951 -10.2915 -10.2902
-10.2895 -10.2893 -10.2889 -10.2886 -10.2884 -10.2870 -10.2777 -10.2748
-10.2521 -10.2504 -10.2486 -10.2474 -10.2429 -10.2409 -10.2402 -10.2398
-10.2392 -10.2392 -10.2276 -10.2275 -10.2262 -10.2260 -10.2190 -10.2182
-10.2171 -10.2162 -10.2130 -10.2115 -10.2115 -10.2108 -10.2098 -10.2096
-10.1921 -10.1916 -10.1902 -10.1897 -10.1873 -10.1844 -10.1832 -10.1800
-10.1800 -10.1786 -10.1775 -10.1760 -10.1758 -10.1758 -10.1742 -10.1725
-10.1678 -10.1676 -10.1675 -10.1674 -10.1672 -10.1637 -10.1585 -10.1584
 -1.1022  -1.0891  -1.0886  -1.0861  -1.0845  -1.0839  -1.0815  -1.0608
 -1.0443  -1.0404  -0.9973  -0.9799  -0.9570  -0.9211  -0.9123  -0.8894
 -0.8890  -0.8875  -0.8794  -0.8721  -0.8687  -0.8683  -0.8672  -0.8622
 -0.8536  -0.8492  -0.8464  -0.8405  -0.8113  -0.8079  -0.8041  -0.8022
 -0.7986  -0.7914  -0.7849  -0.7844  -0.7819  -0.7777  -0.7737  -0.7702
 -0.7609  -0.7485  -0.7440  -0.7426  -0.7289  -0.7118  -0.7097  -0.7064
 -0.6995  -0.6927  -0.6894  -0.6872  -0.6863  -0.6755  -0.6723  -0.6681
 -0.6658  -0.6509  -0.6418  -0.6400  -0.6356  -0.6329  -0.6304  -0.6303
 -0.6277  -0.6263  -0.6211  -0.6160  -0.6152  -0.6142  -0.6105  -0.6049
 -0.5982  -0.5908  -0.5870  -0.5708  -0.5629  -0.5582  -0.5547  -0.5532
 -0.5487  -0.5451  -0.5429  -0.5424  -0.5405  -0.5378  -0.5361  -0.5295
 -0.5274  -0.5273  -0.5252  -0.5180  -0.5101  -0.5058  -0.5043  -0.5009
 -0.5004  -0.4973  -0.4964  -0.4935  -0.4906  -0.4866  -0.4846  -0.4839
 -0.4829  -0.4824  -0.4798  -0.4791  -0.4763  -0.4735  -0.4732  -0.4711
 -0.4705  -0.4670  -0.4650  -0.4632  -0.4610  -0.4608  -0.4582  -0.4566
 -0.4511  -0.4487  -0.4430  -0.4397  -0.4368  -0.4350  -0.4335  -0.4297
 -0.4277  -0.4237  -0.4232  -0.4220  -0.4211  -0.4196  -0.4176  -0.4170
 -0.4133  -0.4128  -0.4117  -0.4108  -0.4088  -0.4085  -0.4069  -0.4057
 -0.4038  -0.4003  -0.3960  -0.3939  -0.3914  -0.3906  -0.3875  -0.3840
 -0.3826  -0.3781  -0.3771  -0.3763  -0.3733  -0.3690  -0.3639  -0.3630
 -0.3620  -0.3614  -0.3587  -0.3563  -0.3544  -0.3539  -0.3522  -0.3508
 -0.3479  -0.3468  -0.3462  -0.3451  -0.3441  -0.3431  -0.3419  -0.3409
 -0.3389  -0.3385  -0.3358  -0.3332  -0.3312  -0.3304  -0.3257  -0.3237
 -0.3220  -0.3208  -0.3193  -0.3141  -0.3126  -0.3106  -0.3075  -0.2997
 -0.2987  -0.2953  -0.2932  -0.2915  -0.2874  -0.2805  -0.2669  -0.2641
 -0.2618  -0.2611  -0.2585  -0.2544  -0.2486  -0.2474  -0.2388  -0.2313
 -0.2269  -0.2137  -0.2085  -0.2060  -0.1602
 -- Virtual --
 -0.0844  -0.0793  -0.0233   0.0020   0.0142   0.0178   0.0216   0.0459
  0.0521   0.0548   0.0781   0.0812   0.0861   0.0873   0.0902   0.0997
  0.1221   0.1252   0.1255   0.1289   0.1301   0.1325   0.1342   0.1382
  0.1396   0.1413   0.1438   0.1446   0.1459   0.1469   0.1497   0.1509
  0.1515   0.1528   0.1582   0.1591   0.1611   0.1651   0.1652   0.1656
  0.1674   0.1708   0.1718   0.1745   0.1787   0.1826   0.1834   0.1851
  0.1884   0.1885   0.1912   0.1934   0.1943   0.1969   0.1980   0.2021
  0.2048   0.2068   0.2075   0.2093   0.2105   0.2121   0.2128   0.2140
  0.2145   0.2170   0.2172   0.2196   0.2203   0.2207   0.2227   0.2245
  0.2263   0.2268   0.2280   0.2287   0.2302   0.2317   0.2326   0.2337
  0.2343   0.2350   0.2358   0.2372   0.2381   0.2387   0.2409   0.2432
  0.2436   0.2451   0.2459   0.2481   0.2488   0.2492   0.2500   0.2522
  0.2526   0.2538   0.2550   0.2569   0.2578   0.2584   0.2594   0.2604
  0.2621   0.2631   0.2639   0.2652   0.2669   0.2681   0.2710   0.2723
  0.2739   0.2742   0.2773   0.2789   0.2829   0.2844   0.2863   0.2878
  0.2908   0.2915   0.2934   0.2941   0.2987   0.2990   0.3010   0.3024
  0.3035   0.3066   0.3082   0.3107   0.3124   0.3139   0.3183   0.3194
  0.3196   0.3217   0.3234   0.3257   0.3272   0.3276   0.3303   0.3318
  0.3332   0.3361   0.3385   0.3406   0.3418   0.3461   0.3525   0.3565
  0.3585   0.3610   0.3676   0.3722   0.3750   0.3792   0.3830   0.3847
  0.3884   0.3925   0.3990   0.4087   0.4122   0.4166   0.4186   0.4218
  0.4240   0.4297   0.4380   0.4465   0.4618   0.4659   0.4683   0.4751
  0.4761   0.4830   0.4868   0.4988   0.5007   0.5075   0.5099   0.5111
  0.5132   0.5148   0.5158   0.5165   0.5190   0.5209   0.5231   0.5244
[...]
  1.2524   1.2568   1.2579   1.2587   1.2606   1.2638   1.2689   1.2717
  1.2754   1.2784   1.2801   1.2824   1.2837   1.2846   1.2856   1.2912
  1.2929   1.2951   1.3020   1.3033   1.3066   1.3140   1.3160   1.3219
  1.3258   1.3266   1.3307   1.3362   1.3388   1.3431   1.3447   1.3470
  1.3479   1.3491   1.3524   1.3551   1.3580   1.3594   1.3631   1.3667
  1.3669   1.3717   1.3736   1.3762   1.3806   1.3875   1.3904   1.3953
  1.3961   1.3996   1.4005   1.4062   1.4080   1.4093   1.4118   1.4170
  1.4215   1.4235   1.4283   1.4317   1.4336   1.4357   1.4394   1.4441
  1.4456   1.4505   1.4532   1.4560   1.4567   1.4612   1.4625   1.4651
  1.4681   1.4756   1.4783   1.4797   1.4825   1.4878   1.4927   1.4960
  1.4981   1.5067   1.5120   1.5184   1.5235   1.5270   1.5304   1.5334
  1.5358   1.5376   1.5396   1.5409   1.5475   1.5519   1.5645   1.5691
  1.5789   1.5804   1.5842   1.5933   1.5963   1.6034   1.6094   1.6098
  1.6200   1.6249   1.6271   1.6336   1.6398   1.6444   1.6463   1.6507
  1.6534   1.6558   1.6560   1.6612   1.6641   1.6677   1.6691   1.6694
  1.6724   1.6744   1.6773   1.6817   1.6880   1.6905   1.6943   1.6968
  1.6981   1.7020   1.7048   1.7106   1.7152   1.7173   1.7202   1.7239
  1.7272   1.7308   1.7318   1.7341   1.7358   1.7386   1.7392   1.7409
  1.7445   1.7469   1.7508   1.7512   1.7526   1.7552   1.7565   1.7578
  1.7635   1.7665   1.7689   1.7722   1.7728   1.7749   1.7789   1.7810
  1.7874   1.7907   1.7941   1.7971   1.8037   1.8097   1.8119   1.8155
  1.8176   1.8185   1.8243   1.8275   1.8311   1.8354   1.8380   1.8440
  1.8509   1.8565   1.8582   1.8636   1.8670   1.8785   1.8808   1.8831
  1.8861   1.8879   1.8945   1.8950   1.8988   1.9042   1.9124   1.9149
  1.9164   1.9191   1.9229   1.9256   1.9279   1.9294   1.9322   1.9325
  1.9358   1.9384   1.9401   1.9420   1.9479   1.9519   1.9552   1.9581
  1.9592   1.9608   1.9655   1.9678   1.9707   1.9745   1.9747   1.9758
  1.9801   1.9824   1.9833   1.9920   1.9951   1.9973   2.0014   2.0040
  2.0065   2.0077   2.0125   2.0145   2.0177   2.0187   2.0220   2.0242
  2.0259   2.0277   2.0306   2.0308   2.0337   2.0346   2.0369   2.0450
  2.0464   2.0498   2.0540   2.0578   2.0652   2.0671   2.0721   2.0783
  2.0788   2.0823   2.0888   2.0905   2.0943   2.0970   2.1006   2.1035
  2.1073   2.1115   2.1173   2.1194   2.1216   2.1255   2.1316   2.1331
  2.1333   2.1349   2.1355   2.1361   2.1390   2.1395   2.1401   2.1418
  2.1422   2.1427   2.1452   2.1458   2.1494   2.1536   2.1554   2.1652
  2.1698   2.1816   2.1871   2.1963   2.2047   2.2111   2.2143   2.2171
  2.2221   2.2345   2.2409   2.2442   2.2451   2.2543   2.2551   2.2571
  2.2592   2.2611   2.2617   2.2639   2.2652   2.2679   2.2701   2.2709
  2.2719   2.2735   2.2762   2.2772   2.2782   2.2818   2.2843   2.2872
  2.2885   2.2919   2.2941   2.2948   2.2953   2.2993   2.3005   2.3031
  2.3052   2.3058   2.3075   2.3088   2.3099   2.3107   2.3122   2.3126
  2.3133   2.3139   2.3154   2.3172   2.3176   2.3197   2.3222   2.3233
  2.3281   2.3297   2.3314   2.3330   2.3362   2.3400   2.3406   2.3425
  2.3462   2.3470   2.3487   2.3515   2.3528   2.3546   2.3574   2.3592
  2.3608   2.3663   2.3668   2.3691   2.3731   2.3740   2.3769   2.3782
  2.3791   2.3827   2.3844   2.3859   2.3864   2.3872   2.3897   2.3946
  2.3959   2.3992   2.4003   2.4038   2.4041   2.4080   2.4136   2.4163
  2.4167   2.4234   2.4241   2.4245   2.4264   2.4295   2.4332   2.4332
  2.4354   2.4358   2.4380   2.4393   2.4430   2.4453   2.4467   2.4483
  2.4489   2.4528   2.4578   2.4610   2.4629   2.4655   2.4663   2.4699
  2.4710   2.4716   2.4721   2.4749   2.4759   2.4791   2.4817   2.4840
  2.4853   2.4862   2.4882   2.4903   2.4948   2.4983   2.5019   2.5062
  2.5091   2.5202   2.5214   2.5218   2.5279   2.5295   2.5335   2.5348
  2.5406   2.5454   2.5499   2.5532   2.5563   2.5572   2.5620   2.5687
  2.5756   2.5764   2.5769   2.5814   2.5827   2.5895   2.5921   2.5944
  2.5974   2.6030   2.6034   2.6053   2.6071   2.6104   2.6122   2.6175
  2.6193   2.6209   2.6243   2.6255   2.6295   2.6311   2.6332   2.6344
  2.6380   2.6395   2.6446   2.6466   2.6520   2.6532   2.6600   2.6641
  2.6683   2.6705   2.6710   2.6724   2.6736   2.6773   2.6820   2.6897
  2.6926   2.6954   2.7021   2.7038   2.7105   2.7127   2.7158   2.7187
  2.7223   2.7232   2.7265   2.7321   2.7338   2.7391   2.7440   2.7485
  2.7499   2.7518   2.7592   2.7615   2.7639   2.7662   2.7695   2.7712
  2.7744   2.7810   2.7920   2.7928   2.8009   2.8031   2.8116   2.8123
  2.8167   2.8193   2.8248   2.8284   2.8305   2.8342   2.8378   2.8404
  2.8413   2.8437   2.8466   2.8495   2.8510   2.8556   2.8603   2.8638
  2.8692   2.8708   2.8766   2.8821   2.8871   2.8885   2.8924   2.8941
  2.8964   2.8983   2.9000   2.9008   2.9031   2.9059   2.9076   2.9085
  2.9149   2.9170   2.9249   2.9300   2.9335   2.9348   2.9435   2.9492
  2.9511   2.9583   2.9682   2.9713   2.9769   2.9829   2.9864   2.9898
  2.9971   2.9994   3.0040   3.0089   3.0097   3.0133   3.0156   3.0173
  3.0214   3.0336   3.0380   3.0441   3.0466   3.0502   3.0518   3.0581
  3.0680   3.0747   3.0807   3.0851   3.0876   3.0920   3.0994   3.1019
  3.1138   3.1201   3.1221   3.1263   3.1283   3.1347   3.1363   3.1380
  3.1425   3.1448   3.1469   3.1473   3.1491   3.1527   3.1550   3.1589
  3.1616   3.1650   3.1786   3.1799   3.1805   3.1862   3.1920   3.1959
  3.2097   3.2144   3.2167   3.2192   3.2252   3.2300   3.2321   3.2345
  3.2352   3.2406   3.2432   3.2439   3.2449   3.2487   3.2509   3.2547
  3.2618   3.2633   3.2659   3.2714   3.2755   3.2784   3.2822   3.2859
  3.2862   3.2914   3.2999   3.3049   3.3128   3.3185   3.3242   3.3444
  3.3480   3.3554   3.3577   3.3649   3.3691   3.3795   3.3915   3.3985
  3.4099   3.4123   3.4266   3.4911   3.5298   3.5929   3.6093   3.6202
  3.6212   3.6369   3.6374   3.6386   3.6410   3.6463   3.6553   3.6564
  3.6579   3.6655   3.6784   3.6834   3.6848   3.6890   3.6907   3.6937
  3.6973   3.7017   3.7035   3.7119   3.7140   3.7156   3.7235   3.7243
  3.7257   3.7363   3.7368   3.7462   3.7474   3.7488   3.7517   3.7539
  3.7549   3.7616   3.7623   3.7759   3.7768   3.7793   3.7840   3.7863
  3.7865   3.7870   3.7876   3.7886   3.7893   3.7899   3.7911   3.7924
  3.8003   3.8031   3.8222   3.8261   3.8292   3.8306   3.8523   3.8865
  3.8904   3.8917   3.8961   3.9018   3.9027   3.9139   3.9157   3.9250
  3.9264   3.9319   3.9355   3.9369   3.9460   3.9491   3.9593   3.9850
  3.9938   4.0039   4.0166   4.0195   4.0259   4.0366   4.0584   4.0661
  4.0705   4.0818   4.0849   4.0923   4.0985   4.1469   4.1509   4.1540
  4.1635   4.1735   4.1787   4.1807   4.1833   4.1851   4.1913   4.1929
  4.2066   4.2424   4.2492   4.2617   4.2786   4.2980   4.3118   4.3295
  4.3339   4.3407   4.3529   4.3702   4.3777   4.3807   4.3846   4.3914
  4.4010   4.4061   4.4225   4.4244   4.4391   4.4924   4.4962   4.5038
  4.5126   4.5162   4.5177   4.5210   4.5289   4.5371   4.5441   4.5492
  4.5597   4.5682   4.5707   4.5916   4.6077   4.6108   4.6323   4.6397
  4.6425   4.6495   4.6537   4.6560   4.6579   4.6692   4.6704   4.6781
  4.6863   4.7060   4.7108   4.7228   4.7274   4.7518   4.7606   4.7959
  4.8084   4.8199   4.8237   4.8308   4.8386   4.8406   4.8913   4.9232
  4.9350   5.0407   5.0531   5.0601   5.0700
 --------------------------------------------------------------
 
          Ground-State Mulliken Net Atomic Charges

     Atom                 Charge (a.u.)
  ----------------------------------------
      1 N                    -0.670449
      2 O                    -0.549114
      3 O                    -0.550459
      4 N                    -0.573442
      5 H                     0.268153
      6 N                    -0.547240
      7 O                    -0.544724
      8 N                    -0.578861
      9 H                     0.271145
     10 N                    -0.530813
     11 N                    -0.666050
     12 O                    -0.577655
     13 O                    -0.531713
     14 O                    -0.542282
     15 O                    -0.537423
     16 O                    -0.532404
     17 N                    -0.527697
     18 N                    -0.550453
     19 C                     0.477085
     20 C                     0.535068
     21 C                    -0.048868
     22 C                    -0.059919
     23 C                     0.484241
     24 C                     0.548878
     25 C                    -0.050540
     26 C                     0.009369
     27 C                    -0.063538
     28 C                     0.476608
     29 C                     0.548020
     30 C                     0.478220
     31 C                     0.328756
     32 C                     0.319142
     33 C                    -0.033743
     34 C                     0.316936
     35 C                     0.026480
     36 H                     0.128487
     37 H                     0.127712
     38 C                     0.328359
     39 C                     0.554115
     40 C                    -0.032989
     41 C                     0.011080
     42 C                     0.307354
     43 C                    -0.116312
     44 H                     0.093227
     45 C                    -0.126925
     46 H                     0.094016
     47 C                     0.253524
     48 C                    -0.119509
     49 H                     0.094015
     50 C                    -0.126914
     51 H                     0.093898
     52 C                     0.301743
     53 C                    -0.275057
     54 H                     0.165967
     55 H                     0.144766
     56 C                     0.260556
     57 C                     0.024780
     58 H                     0.126251
     59 H                     0.126803
     60 C                    -0.100187
     61 H                     0.094769
     62 C                     0.031128
     63 H                     0.124516
     64 H                     0.124488
     65 C                     0.042403
     66 H                     0.118629
     67 H                     0.124822
     68 C                    -0.124748
     69 H                     0.093610
     70 C                    -0.100566
     71 H                     0.096987
     72 C                    -0.125635
     73 H                     0.095257
     74 C                    -0.271250
     75 H                     0.154544
     76 H                     0.143306
     77 C                     0.051428
     78 H                     0.112171
     79 H                     0.123129
     80 C                    -0.273674
     81 H                     0.142920
     82 H                     0.145970
     83 C                    -0.283882
     84 H                     0.131617
     85 H                     0.129582
     86 C                    -0.276528
     87 H                     0.150056
     88 H                     0.144973
     89 C                    -0.279519
     90 H                     0.136793
     91 H                     0.130460
     92 C                     0.075518
     93 H                     0.101066
     94 H                     0.134139
     95 C                    -0.277897
     96 H                     0.155121
     97 H                     0.139047
     98 C                    -0.283059
     99 H                     0.132647
    100 H                     0.130524
    101 C                     0.045632
    102 H                     0.112475
    103 H                     0.114911
    104 C                    -0.276292
    105 H                     0.128788
    106 H                     0.128694
    107 C                    -0.269603
    108 H                     0.122845
    109 H                     0.123199
    110 C                    -0.256684
    111 H                     0.124537
    112 H                     0.125375
    113 C                    -0.384805
    114 H                     0.132753
    115 H                     0.138353
    116 H                     0.132386
    117 C                    -0.273121
    118 H                     0.128753
    119 H                     0.124387
    120 C                    -0.268096
    121 H                     0.146401
    122 H                     0.160010
    123 C                    -0.383575
    124 H                     0.136320
    125 H                     0.140329
    126 H                     0.134953
    127 C                     0.075682
    128 H                     0.113243
    129 H                     0.081752
    130 C                    -0.267124
    131 H                     0.116321
    132 H                     0.125730
    133 C                    -0.372848
    134 H                     0.131512
    135 H                     0.134088
    136 H                     0.126938
    137 C                    -0.382893
    138 H                     0.131548
    139 H                     0.140830
    140 H                     0.137888
    141 C                    -0.388914
    142 H                     0.131063
    143 H                     0.143737
    144 H                     0.138581
    145 C                    -0.272141
    146 H                     0.124973
    147 H                     0.127430
    148 C                    -0.384677
    149 H                     0.136034
    150 H                     0.140526
    151 H                     0.134738
    152 C                    -0.269549
    153 H                     0.122162
    154 H                     0.140154
    155 C                    -0.396080
    156 H                     0.132452
    157 H                     0.131339
    158 H                     0.134486
    159 C                    -0.366134
    160 H                     0.133857
    161 H                     0.126309
    162 H                     0.123724
  ----------------------------------------
  Sum of atomic charges =     0.000000

 -----------------------------------------------------------------
                    Cartesian Multipole Moments
 -----------------------------------------------------------------
    Charge (ESU x 10^10)
                 0.0000
    Dipole Moment (Debye)
         X       0.2453      Y      -0.7662      Z       1.0349
       Tot       1.3108
    Quadrupole Moments (Debye-Ang)
        XX    -432.5509     XY     -19.0326     YY    -369.4831
        XZ      -2.4947     YZ     -62.5470     ZZ    -348.8903
    Octopole Moments (Debye-Ang^2)
       XXX   10298.8312    XXY    3778.7767    XYY    3345.2458
       YYY    9400.3914    XXZ  -13208.2503    XYZ    -301.4882
       YYZ  -10810.6478    XZZ    2897.4107    YZZ     192.2818
       ZZZ  -35360.8024
    Hexadecapole Moments (Debye-Ang^3)
      XXXX -195585.7946   XXXY  -78173.1321   XXYY  -69795.3591
      XYYY  -71468.7795   YYYY -202838.1789   XXXZ  324056.8347
      XXYZ  116553.3759   XYYZ  101462.1700   YYYZ  288994.6748
      XXZZ -442091.5299   XYZZ  -24009.0692   YYZZ -356001.0224
      XZZZ  291916.2213   YZZZ  180522.3799   ZZZZ ************
 -----------------------------------------------------------------
 Total job time:  5029.13s(wall), 38027.58s(cpu) 
 Tue Feb 11 18:10:14 2025

        *************************************************************
        *                                                           *
        *  Thank you very much for using Q-Chem.  Have a nice day.  *
        *                                                           *
        *************************************************************


Copy Fragment Subsystem from /scratch/sanghita/qchem47523/Frg2s1/
Copy MO Coefficient from /scratch/sanghita/qchem47523/Frg2s1/
Alpha electrons: 293
 Beta electrons: 293
Copy Set Amplitude from /scratch/sanghita/qchem47523/Frg2s1/

Total alpha electrons: 586
Total  beta electrons: 586

-----------------------------------------------------------------
 Done with SCF on isolated fragments
-----------------------------------------------------------------

-----------------------------------------------------------------
 Start with Direct Coulomb-Exchange Integration 
-----------------------------------------------------------------

 RPA/TDDFT Excited States --
 Donor    : State 1 to 6
 Acceptor : State 1 to 6
                                              Dipole-Dipole
              Coulomb (eV)    Exchange (eV)  Interaction (eV)
           ---------------  ---------------  ---------------
 ( 1, 1):  -0.000702780673                0  -0.000741371244
 ( 1, 2):   0.000989864351                0   0.000878144099
 ( 1, 3):  -0.000121849863                0  -9.42291123E-05
 ( 1, 4):   0.000315819517                0   0.000367653409
 ( 1, 5):   8.68823971E-05                0   0.000140295033
 ( 1, 6):   0.000436334344                0   0.000377258577
 ( 2, 1):   0.000724597359                0   0.000878144228
 ( 2, 2):   0.000547799022                0    0.00054731321
 ( 2, 3):   7.46118967E-05                0   0.000106039457
 ( 2, 4):  -0.000211094278                0  -0.000275419657
 ( 2, 5):  -0.000128195956                0  -0.000244883618
 ( 2, 6):   0.000291813953                0   0.000269589514
 ( 3, 1):  -6.95290185E-05                0  -9.42293129E-05
 ( 3, 2):   0.000134795662                0   0.000106039384
 ( 3, 3):    -1.312491E-05                0  -1.18549437E-05
 ( 3, 4):   3.40894765E-05                0   4.60043423E-05
 ( 3, 5):   8.52329872E-06                0   2.05542557E-05
 ( 3, 6):   6.08997749E-05                0   4.62394381E-05
 ( 4, 1):   0.000367897781                0   0.000367653633
 ( 4, 2):  -0.000341601696                0  -0.000275419174
 ( 4, 3):   5.85926922E-05                0   4.60042993E-05
 ( 4, 4):  -0.000152481211                0  -0.000165924587
 ( 4, 5):  -4.74945131E-05                0  -8.14111795E-05
 ( 4, 6):  -0.000143879293                0  -0.000116131996
 ( 5, 1):    0.00021258975                0   0.000140294942
 ( 5, 2):  -0.000390990058                0   -0.00024488384
 ( 5, 3):   4.70303487E-05                0   2.05541695E-05
 ( 5, 4):  -0.000115103347                0  -8.14110734E-05
 ( 5, 5):    3.8410046E-05                0   3.59401072E-05
 ( 5, 6):  -0.000148622822                0  -8.76338745E-05
 ( 6, 1):   0.000303479374                0   0.000377258447
 ( 6, 2):   0.000226647108                0   0.000269589555
 ( 6, 3):    3.3011885E-05                0   4.62394477E-05
 ( 6, 4):  -9.06671335E-05                0  -0.000116132141
 ( 6, 5):  -4.20553237E-05                0  -8.76336697E-05
 ( 6, 6):   0.000125984088                0   0.000137713936
--------------------------------------------------------------
 DC time:  CPU 9402.56 s  wall 1221.71 s


 CIS/TDDFT memory preview:
 --------------------------
	NOV = NOa*NVa + NOb*NVb = 3087048
	NRoots = 12, max iter = 30, max vectors = 360
	Size of each subspace vector: 23.55 Mb
	Davidson algorithm may add up to 2 x NOV x NRoots (= 565.3 Mb) per iteration
	Max memory = 16957.7 Mb (worst case scenario)
	Currently available memory = 2000.0 Mb

	In case of problems:
	(a) increase memory (MEM_TOTAL = 16958 can hold 360 subspace vectors), or
	(b) request fewer states (CIS_N_ROOTS = 1 will fit in current MEM_TOTAL), or
	(c) reduce MAX_CIS_SUBSPACE (= 42 will fit in current MEM_TOTAL).
	Reducing MAX_CIS_SUBSPACE may hamper convergence.

 CIS energy converged when residual is below 10e- 6
  Skipping CIS/RPA calculation, including relax
  Going directly to Wavefunction Analysis
 No wavefunction analysis requested
 Total job time:  11320.30s(wall), 9441.99s(cpu) 
 Tue Feb 11 18:30:43 2025

        *************************************************************
        *                                                           *
        *  Thank you very much for using Q-Chem.  Have a nice day.  *
        *                                                           *
        *************************************************************


