                  Welcome to Q-Chem
     A Quantum Leap Into The Future Of Chemistry


 Q-Chem 6.1 (devel), Q-Chem, Inc., Pleasanton, CA (2022)

 E. Epifanovsky,  A. T. B. Gilbert,  Xintian Feng,  Joonho Lee,  Yuezhi Mao,  
 N. Mardirossian,  P. Pokhilko,  A. White,  M. Wormit,  M. P. Coons,  
 A. L. Dempwolff,  Zhengting Gan,  D. Hait,  P. R. Horn,  L. D. Jacobson,  
 I. Kaliman,  J. Kussmann,  A. W. Lange,  Ka Un Lao,  D. S. Levine,  Jie Liu,  
 S. C. McKenzie,  A. F. Morrison,  K. Nanda,  F. Plasser,  D. R. Rehn,  
 M. L. Vidal,  Zhi-Qiang You,  Ying Zhu,  B. Alam,  B. Albrecht,  
 A. Aldossary,  E. Alguire,  J. H. Andersen,  V. Athavale,  D. Barton,  
 K. Begam,  A. Behn,  N. Bellonzi,  Y. A. Bernard,  E. J. Berquist,  
 H. Burton,  A. Carreras,  K. Carter-Fenk,  Mathew Chow,  Romit Chakraborty,  
 Chandrima Chakravarty,  Junhan Chen,  A. D. Chien,  K. D. Closser,  
 V. Cofer-Shabica,  L. Cunha,  S. Dasgupta,  Jia Deng,  M. de Wergifosse,  
 M. Diedenhofen,  Hainam Do,  S. Ehlert,  Po-Tung Fang,  S. Fatehi,  
 Qingguo Feng,  T. Friedhoff,  Thomas Froitzheim,  B. Ganoe,  J. Gayvert,  
 Qinghui Ge,  G. Gidofalvi,  M. Goldey,  Montgomery Gray,  J. Gomes,  
 C. Gonzalez-Espinoza,  S. Gulania,  A. Gunina,  J. A. Gyamfi,  
 M. W. D. Hanson-Heine,  P. H. P. Harbach,  A. W. Hauser,  M. F. Herbst,  
 M. Hernandez Vera,  M. Hodecker,  Z. C. Holden,  S. Houck,  Xunkun Huang,  
 Kerwin Hui,  B. C. Huynh,  K. Ikeda,  M. Ivanov,  Hyunjun Ji,  Zuxin Jin,  
 Hanjie Jiang,  Subrata Jana,  B. Kaduk,  S. Kaehler,  R. Kang,  
 K. Khistyaev,  Jaehoon Kim,  Yongbin Kim,  P. Klunzinger,  Z. Koczor-Benda,  
 Joong Hoon Koh,  D. Kosenkov,  Saikiran Kotaru,  L. Koulias,  T. Kowalczyk,  
 C. M. Krauter,  K. Kue,  A. Kunitsa,  T. Kus,  A. Landau,  K. V. Lawler,  
 D. Lefrancois,  S. Lehtola,  Rain Li,  Shaozhi Li,  Yi-Pei Li,  
 Jiashu Liang,  M. Liebenthal,  Hung-Hsuan Lin,  You-Sheng Lin,  Fenglai Liu,  
 Kuan-Yu Liu,  M. Loipersberger,  A. Luenser,  C. Malbon,  A. Manjanath,  
 P. Manohar,  E. Mansoor,  S. F. Manzer,  Shan-Ping Mao,  A. V. Marenich,  
 T. Markovich,  S. Mason,  F. Matz,  S. A. Maurer,  P. F. McLaughlin,  
 M. F. S. J. Menger,  J.-M. Mewes,  S. A. Mewes,  P. Morgante,  
 Mohammad Mostafanejad,  J. W. Mullinax,  K. J. Oosterbaan,  G. Paran,  
 V. Parravicini,  Alexander C. Paul,  Suranjan K. Paul,  F. Pavosevic,  
 Zheng Pei,  S. Prager,  E. I. Proynov,  E. Ramos,  B. Rana,  A. E. Rask,  
 A. Rettig,  R. M. Richard,  F. Rob,  E. Rossomme,  T. Scheele,  M. Scheurer,  
 M. Schneider,  P. E. Schneider,  N. Sergueev,  S. M. Sharada,  
 Hengyuan Shen,  W. Skomorowski,  D. W. Small,  C. J. Stein,  Yingli Su,  
 Yu-Chuan Su,  E. J. Sundstrom,  Zhen Tao,  J. Thirman,  Hung-Yi Tsai,  
 T. Tsuchimochi,  N. M. Tubman,  C. Utku,  S. P. Veccham,  O. Vydrov,  
 J. Wenzel,  Jonathan Wong,  J. Witte,  A. Yamada,  Chou-Hsun Yang,  Kun Yao,  
 S. Yeganeh,  S. R. Yost,  A. Zech,  F. Zeller,  Igor Ying Zhang,  
 Xing Zhang,  Yu Zhang,  D. Zuev,  A. Aspuru-Guzik,  A. T. Bell,  
 N. A. Besley,  K. B. Bravaya,  B. R. Brooks,  D. Casanova,  Jeng-Da Chai,  
 Hsing-Ta Chen,  S. Coriani,  C. J. Cramer,  A. E. DePrince, III,  
 R. A. DiStasio Jr.,  A. Dreuw,  B. D. Dunietz,  T. R. Furlani,  
 W. A. Goddard III,  S. Grimme,  S. Hammes-Schiffer,  T. Head-Gordon,  
 W. J. Hehre,  Chao-Ping Hsu,  T.-C. Jagau,  Yousung Jung,  A. Klamt,  
 Jing Kong,  D. S. Lambrecht,  Xiangyuan Li,  WanZhen Liang,  N. J. Mayhall,  
 C. W. McCurdy,  J. B. Neaton,  T. Neudecker,  C. Ochsenfeld,  
 J. A. Parkhill,  R. Peverati,  V. A. Rassolov,  Haisheng Ren,  Yihan Shao,  
 L. V. Slipchenko,  R. P. Steele,  J. E. Subotnik,  A. J. W. Thom,  
 A. Tkatchenko,  D. G. Truhlar,  T. Van Voorhis,  Fan Wang,  
 T. A. Wesolowski,  K. B. Whaley,  H. L. Woodcock III,  P. M. Zimmerman,  
 S. Faraji,  P. M. W. Gill,  M. Head-Gordon,  J. M. Herbert,  A. I. Krylov

 Contributors to earlier versions of Q-Chem not listed above: 
 R. D. Adamson,  B. Austin,  R. Baer,  J. Baker,  G. J. O. Beran,  
 K. Brandhorst,  S. T. Brown,  E. F. C. Byrd,  Arup K. Chakraborty,  
 G. K. L. Chan,  Chun-Min Chang,  Yunqing Chen,  C.-L. Cheng,  
 Siu Hung Chien,  D. M. Chipman,  D. L. Crittenden,  H. Dachsel,  
 R. J. Doerksen,  A. D. Dutoi,  R. G. Edgar,  J. Fosso-Tande,  
 L. Fusti-Molnar,  D. Ghosh,  A. Ghysels,  A. Golubeva-Zadorozhnaya,  
 J. Gonthier,  M. S. Gordon,  S. R. Gwaltney,  G. Hawkins,  J. E. Herr,  
 A. Heyden,  S. Hirata,  E. G. Hohenstein,  G. Kedziora,  F. J. Keil,  
 C. Kelley,  Jihan Kim,  R. A. King,  R. Z. Khaliullin,  P. P. Korambath,  
 W. Kurlancheek,  A. Laurent,  A. M. Lee,  M. S. Lee,  S. V. Levchenko,  
 Ching Yeh Lin,  D. Liotard,  E. Livshits,  R. C. Lochan,  I. Lotan,  
 L. A. Martinez-Martinez,  P. E. Maslen,  N. Nair,  D. P. O'Neill,  
 D. Neuhauser,  E. Neuscamman,  C. M. Oana,  R. Olivares-Amaya,  R. Olson,  
 T. M. Perrine,  B. Peters,  P. A. Pieniazek,  A. Prociuk,  Y. M. Rhee,  
 J. Ritchie,  M. A. Rohrdanz,  E. Rosta,  N. J. Russ,  H. F. Schaefer III,  
 M. W. Schmidt,  N. E. Schultz,  S. Sharma,  N. Shenvi,  C. D. Sherrill,  
 A. C. Simmonett,  A. Sodt,  T. Stein,  D. Stuck,  K. S. Thanthiriwatte,  
 V. Vanovschi,  L. Vogt,  Tao Wang,  A. Warshel,  M. A. Watson,  
 C. F. Williams,  Q. Wu,  X. Xu,  Jun Yang,  W. Zhang,  Yan Zhao

   Please cite Q-Chem as follows:
  "Software for the frontiers of quantum chemistry:
   An overview of developments in the Q-Chem 5 package"
   J. Chem. Phys. 155, 084801 (2021)
   https://doi.org/10.1063/5.0055522 (open access)

 Q-Chem 6.1.0 for Intel X86 EM64T Linux

 Parts of Q-Chem use Armadillo 9.900.5 (Nocturnal Misbehaviour).
 http://arma.sourceforge.net/

 Q-Chem begins on Mon Feb 10 21:36:00 2025  

 Host: n136.cluster
0

     Scratch files written to /scratch/sanghita/qchem125926//
 Processing $rem in /home/chance/software/ccats2023/config/preferences:
 Processing $rem in /home/sanghita/.qchemrc:

 Checking the input file for inconsistencies... 	...done.

--------------------------------------------------------------
User input:
--------------------------------------------------------------
$molecule
0 1
--
0 1
N   14.0720775   14.4772325   13.2163359
O    9.7109512   18.5476720   16.9529985
O   12.6699426   19.5523330   12.3564035
N   14.1978809   12.5091885   15.1593425
H   13.6499394   13.1366178   14.9463288
N   10.6968001   15.7849540   16.5189328
O   17.7504349   10.6360029   13.6758024
N   12.1814359   15.9435682   14.6317116
H   12.5053443   15.1481361   14.6714205
N   13.1221249   11.7865154   17.1941461
N   12.1227943   13.8442504   16.4446593
O   16.4108133   12.1313491   10.2097075
O   15.1190570   10.0272714   18.5288177
O   11.1290189   10.3657151   18.8545277
O    8.2990082   15.1419389   18.2749697
O   13.5562040   16.9047300    9.6341685
N   13.1459147   16.6060343   12.5358173
N   15.4965237   12.5285272   13.1505830
C   11.0143706   14.5319951   16.8417490
C   14.1170956   11.7921351   16.3321237
C   15.9650751   11.1214508   15.1360316
C   11.0953689   17.8358760   15.1810458
C   14.8723675   13.5645586   12.5930497
C   12.4922182   16.8341150   13.6409164
C   11.8319416   18.0811204   14.0187143
C   10.2214631   13.7490278   17.7741864
C   15.2977586   10.9475056   16.3546309
C   13.7878495   15.4471905   12.3009395
C   11.3070969   16.4441565   15.5508055
C   12.1288558   12.6755315   17.1472027
C   15.7878894   10.0968648   17.3722738
C   11.8793668   19.3617450   13.4496060
C   10.9226761   12.5554385   17.9638892
C   17.1459011   10.4155106   14.8643386
C    8.9442376   19.5584112   17.6118137
H    9.4508233   20.3839259   17.6632585
H    8.1255381   19.7310394   17.1214803
C   10.3528342   18.8531819   15.7951684
C   15.2363235   12.1179618   14.3756128
C   14.3593810   15.1246861   11.0045300
C   15.0539669   13.9171689   11.1762271
C   10.4278783   11.5483961   18.7950447
C   11.1261322   20.3329703   14.0524750
H   11.1215417   21.1866756   13.6859306
C   16.9661325    9.4174721   17.0587819
H   17.3312499    8.8448704   17.6938039
C   15.7139749   13.3261514   10.1105154
C   17.5980982    9.5544504   15.8707280
H   18.3676159    9.0557279   15.7163935
C   10.3763483   20.0885228   15.1826535
H    9.8702941   20.7785556   15.5427672
C   14.3384859   15.7631269    9.7584399
C    8.6321772   19.0697299   18.9670633
H    8.2624313   18.1755258   18.8979343
H    9.4568811   19.0078014   19.4734733
C    9.0115299   13.9744433   18.4301079
C   18.9503624    9.9285128   13.3515393
H   19.5718897    9.9701792   14.0942739
H   18.7477221    8.9961052   13.1746977
C    8.5615626   12.9870674   19.2757322
H    7.7659346   13.1239969   19.7387356
C   10.7456831    9.4004821   19.7917881
H   10.9055579    9.7274130   20.6904649
H    9.7994720    9.2055198   19.7001520
C   15.7161443    9.4532460   19.6551378
H   15.8120791    8.4994678   19.5104492
H   16.6046296    9.8276419   19.7676734
C    9.2425547   11.8006900   19.4622197
H    8.8995913   11.1624303   20.0457969
C   15.7371172   13.9977373    8.9128156
H   16.2209588   13.6411817    8.2022340
C   15.0565071   15.1953969    8.7359741
H   15.0882829   15.6210433    7.9096416
C   11.5619574    8.1528774   19.5377793
H   12.5043098    8.3841001   19.5056263
H   11.3162087    7.7750646   18.6776862
C   13.1587044   20.8344929   12.0573805
H   12.4076280   21.4172194   11.8660700
H   13.6124249   21.1860035   12.8386987
C   14.0485738   20.8689550   10.9657856
H   13.6168669   20.3965673   10.2359122
H   14.8240276   20.3434580   11.2165791
C    7.6674238   19.9281068   19.7290897
H    6.8486296   20.0094367   19.2146415
H    8.0457399   20.8148554   19.8223335
C   14.9650728    9.6661315   20.8608758
H   14.0426834    9.4279437   20.6759960
H   14.9800813   10.6185596   21.0489710
C    6.5831864   16.3007567   17.1086190
H    7.0632746   17.1373790   17.0218059
H    6.1201459   16.1594752   16.2678177
C   15.6267041   10.9876648   10.4400838
H   14.7328058   11.1713958   10.1105154
H   15.5578977   10.8648484   11.3998513
C   12.2346021   18.4933919    8.5301948
H   12.3991602   19.0594225    9.3002595
H   11.4025321   18.0184458    8.6893522
C   11.3324346    7.1381324   20.6132976
H   10.3858331    6.9355137   20.6534889
H   11.5874296    7.5230023   21.4653525
C   13.3497586   17.4870061    8.4273051
H   14.1617389   17.9288152    8.1331050
H   13.1190623   16.8089684    7.7713836
C   15.3510178    8.9895681   22.0601833
H   15.2307208    8.0388870   21.9122794
H   16.2998699    9.1391348   22.1904030
C   20.7262645   10.0357673   11.6361760
H   21.3901812   10.0388088   12.3435423
H   20.5674991    9.1104399   11.3950284
C   15.4689195    8.5757414   10.1908980
H   14.6112143    8.5534716    9.7391481
H   15.2768533    8.5751951   11.1426272
C   12.0829851    5.8709485   20.4187719
H   11.8791032    5.2653169   21.1357841
H   11.8295242    5.4733359   19.5827935
H   13.0251303    6.0559573   20.4139489
C   12.0693240   19.3428850    7.3485715
H   11.8390644   18.7693987    6.6026215
H   12.9319963   19.7392755    7.1492228
C   19.5528736   10.5502129   12.1522319
H   19.7093214   11.4844120   12.3564035
H   18.8886234   10.5224830   11.4448655
C   14.6614194    9.3375091   23.3286197
H   15.0088477    8.7948156   24.0408090
H   14.8113782   10.2638327   23.5295761
H   13.7189659    9.1785619   23.2337683
C    7.5527856   15.2880186   17.2066857
H    8.1550812   15.4029118   16.4559129
H    7.0928610   14.4446305   17.0684278
C   16.0262801    9.8303456    9.9079514
H   15.9623692    9.9403089    8.9465763
H   16.9727204    9.7545513   10.1105154
C   11.1206074   20.3871893    7.3935857
H   11.1446390   20.8764371    6.5688609
H   10.2432576   20.0172803    7.5205901
H   11.3280117   20.9770242    8.1218515
C   21.3083710   10.7266657   10.4561603
H   22.1006944   10.2640489   10.1732138
H   20.6691154   10.7306814    9.7407558
H   21.5324041   11.6307558   10.6908773
C    7.3328736   19.3970613   21.0891623
H    6.7146047   19.9920334   21.5216203
H    6.9345570   18.5284529   21.0055644
H    8.1344700   19.3338715   21.6132564
C   14.5263882   22.0774159   10.4416915
H   13.7586074   22.5934452   10.1523143
H   14.9380491   22.5671254   11.1699573
C   15.5040661   22.0465294    9.3082977
H   15.7196571   22.9447873    9.0478583
H   16.3037028   21.5946549    9.5880289
H   15.1165550   21.5805353    8.5639554
C    5.5565906   16.5132914   18.1182237
H    5.0851084   15.6754736   18.2532664
H    5.9936888   16.7367130   18.9542021
C    4.5198059   17.6033945   17.8095548
H    3.9077376   17.6809213   18.5442511
H    4.9675882   18.4417210   17.6761198
H    4.0372176   17.3707472   17.0137677
C   16.0664960    7.3789297    9.9240279
H   15.4648420    6.6645972   10.1458837
H   16.2879840    7.3334613    8.9915905
H   16.8669951    7.2979093   10.4481221
--
0 1
N   35.7363788   14.5021920   35.0131860
O   40.0975051   10.4317526   31.2765234
O   37.1385137    9.4270916   35.8731183
N   35.6105754   16.4702361   33.0701793
H   36.1585169   15.8428067   33.2831930
N   39.1116562   13.1944706   31.7105891
O   32.0580214   18.3434217   34.5537194
N   37.6270204   13.0358564   33.5978103
H   37.3031119   13.8312884   33.5581013
N   36.6863314   17.1929092   31.0353758
N   37.6856620   15.1351742   31.7848625
O   33.3976430   16.8480755   38.0198144
O   34.6893993   18.9521532   29.7007041
O   38.6794374   18.6137095   29.3749941
O   41.5094480   13.8374857   29.9545522
O   36.2522523   12.0746945   38.5953533
N   36.6625416   12.3733903   35.6937045
N   34.3119325   16.4508974   35.0789389
C   38.7940856   14.4474295   31.3877728
C   35.6913606   17.1872895   31.8973981
C   33.8433811   17.8579738   33.0934902
C   38.7130874   11.1435486   33.0484760
C   34.9360888   15.4148660   35.6364722
C   37.3162380   12.1453096   34.5886054
C   37.9765147   10.8983041   34.2108075
C   39.5869931   15.2303968   30.4553354
C   34.5106977   18.0319190   31.8748910
C   36.0206068   13.5322341   35.9285823
C   38.5013593   12.5352681   32.6787163
C   37.6796005   16.3038931   31.0823192
C   34.0205669   18.8825598   30.8572481
C   37.9290895    9.6176796   34.7799159
C   38.8857802   16.4239861   30.2656326
C   32.6625551   18.5639139   33.3651832
C   40.8642186    9.4210134   30.6177081
H   40.3576329    8.5954987   30.5662633
H   41.6829182    9.2483852   31.1080416
C   39.4556221   10.1262427   32.4343534
C   34.5721328   16.8614628   33.8539090
C   35.4490753   13.8547385   37.2249918
C   34.7544894   15.0622557   37.0532947
C   39.3805780   17.4310285   29.4344772
C   38.6823240    8.6464542   34.1770468
H   38.6869146    7.7927490   34.5435912
C   32.8423238   19.5619525   31.1707400
H   32.4772064   20.1345541   30.5357179
C   34.0944814   15.6532731   38.1190064
C   32.2103581   19.4249742   32.3587939
H   31.4408404   19.9236967   32.5131283
C   39.4321080    8.8909018   33.0468684
H   39.9381621    8.2008690   32.6867546
C   35.4699704   13.2162976   38.4710819
C   41.1762791    9.9096947   29.2624586
H   41.5460250   10.8038988   29.3315875
H   40.3515752    9.9716232   28.7560486
C   40.7969264   15.0049812   29.7994139
C   30.8580939   19.0509118   34.8779825
H   30.2365665   19.0092454   34.1352479
H   31.0607342   19.9833194   35.0548241
C   41.2468937   15.9923572   28.9537896
H   42.0425217   15.8554276   28.4907862
C   39.0627732   19.5789424   28.4377337
H   38.9028983   19.2520116   27.5390570
H   40.0089843   19.7739047   28.5293698
C   34.0923120   19.5261786   28.5743840
H   33.9963771   20.4799568   28.7190726
H   33.2038267   19.1517827   28.4618485
C   40.5659015   17.1787346   28.7673021
H   40.9088649   17.8169943   28.1837249
C   34.0713391   14.9816873   39.3167062
H   33.5874975   15.3382429   40.0272878
C   34.7519491   13.7840276   39.4935478
H   34.7201733   13.3583813   40.3198803
C   38.2464989   20.8265472   28.6917425
H   37.3041465   20.5953245   28.7238956
H   38.4922476   21.2043600   29.5518357
C   36.6497518    8.1449317   36.1721414
H   37.4008283    7.5622052   36.3634518
H   36.1960314    7.7934211   35.3908231
C   35.7598824    8.1104696   37.2637362
H   36.1915893    8.5828572   37.9936097
H   34.9844287    8.6359666   37.0129427
C   42.1410325    9.0513177   28.5004321
H   42.9598267    8.9699879   29.0148803
H   41.7627164    8.1645692   28.4071884
C   34.8433835   19.3132931   27.3686460
H   35.7657729   19.5514809   27.5535258
H   34.8283750   18.3608650   27.1805509
C   43.2252699   12.6786679   31.1209028
H   42.7451817   11.8420456   31.2077159
H   43.6883103   12.8199494   31.9617041
C   34.1817522   17.9917598   37.7894380
H   35.0756505   17.8080288   38.1190064
H   34.2505586   18.1145762   36.8296705
C   37.5738542   10.4860327   39.6993271
H   37.4092960    9.9200020   38.9292624
H   38.4059242   10.9609788   39.5401697
C   38.4760217   21.8412921   27.6162242
H   39.4226232   22.0439109   27.5760329
H   38.2210266   21.4564223   26.7641693
C   36.4586977   11.4924184   39.8022167
H   35.6467174   11.0506093   40.0964168
H   36.6893940   12.1704561   40.4581382
C   34.4574384   19.9898565   26.1693386
H   34.5777355   20.9405376   26.3172424
H   33.5085863   19.8402898   26.0391188
C   29.0821918   18.9436572   36.5933459
H   28.4182750   18.9406158   35.8859796
H   29.2409571   19.8689847   36.8344935
C   34.3395368   20.4036831   38.0386239
H   35.1972420   20.4259530   38.4903737
H   34.5316030   20.4042295   37.0868946
C   37.7254712   23.1084761   27.8107499
H   37.9293531   23.7141077   27.0937377
H   37.9789321   23.5060887   28.6467283
H   36.7833259   22.9234673   27.8155729
C   37.7391323    9.6365396   40.8809504
H   37.9693919   10.2100259   41.6269003
H   36.8764600    9.2401491   41.0802991
C   30.2555827   18.4292116   36.0772900
H   30.0991348   17.4950126   35.8731183
H   30.9198329   18.4569416   36.7846563
C   35.1470368   19.6419155   24.9009021
H   34.7996085   20.1846090   24.1887129
H   34.9970780   18.7155919   24.6999458
H   36.0894904   19.8008626   24.9957535
C   42.2556707   13.6914060   31.0228361
H   41.6533751   13.5765128   31.7736090
H   42.7155953   14.5347941   31.1610941
C   33.7821761   19.1490790   38.3215704
H   33.8460871   19.0391156   39.2829455
H   32.8357359   19.2248733   38.1190064
C   38.6878489    8.5922353   40.8359361
H   38.6638173    8.1029874   41.6606610
H   39.5651986    8.9621443   40.7089317
H   38.4804446    8.0024004   40.1076704
C   28.5000853   18.2527589   37.7733615
H   27.7077619   18.7153757   38.0563080
H   29.1393409   18.2487432   38.4887661
H   28.2760522   17.3486688   37.5386445
C   42.4755827    9.5823633   27.1403596
H   43.0938516    8.9873912   26.7079015
H   42.8738993   10.4509717   27.2239574
H   41.6739863    9.6455531   26.6162655
C   35.2820681    6.9020087   37.7878304
H   36.0498488    6.3859793   38.0772075
H   34.8704072    6.4122992   37.0595646
C   34.3043902    6.9328952   38.9212241
H   34.0887992    6.0346373   39.1816635
H   33.5047535    7.3847697   38.6414929
H   34.6919013    7.3988892   39.6655664
C   44.2518656   12.4661332   30.1112981
H   44.7233479   13.3039509   29.9762555
H   43.8147675   12.2427116   29.2753198
C   45.2886504   11.3760301   30.4199671
H   45.9007187   11.2985033   29.6852707
H   44.8408681   10.5377036   30.5534021
H   45.7712386   11.6086774   31.2157542
C   33.7419602   21.6004949   38.3054939
H   34.3436143   22.3148274   38.0836381
H   33.5204722   21.6459633   39.2379313
H   32.9414611   21.6815152   37.7813998
$end
$rem
jobtype sp
method LRC-wPBE 
basis 6-31G**
scf_guess fragmo
sym_ignore true
scf_print_frgm true
sts_dc trans
sts_trans_donor 1-6 
sts_trans_acceptor 1-6 
cis_n_roots 12
cis_singlets 1
cis_triplets 0
sts_dc_bsse 0
rpa 2
$end
--------------------------------------------------------------
 ----------------------------------------------------------------
             Standard Nuclear Orientation (Angstroms)
    I     Atom           X                Y                Z
 ----------------------------------------------------------------
    1      N      14.0720775000    14.4772325000    13.2163359000
    2      O       9.7109512000    18.5476720000    16.9529985000
    3      O      12.6699426000    19.5523330000    12.3564035000
    4      N      14.1978809000    12.5091885000    15.1593425000
    5      H      13.6499394000    13.1366178000    14.9463288000
    6      N      10.6968001000    15.7849540000    16.5189328000
    7      O      17.7504349000    10.6360029000    13.6758024000
    8      N      12.1814359000    15.9435682000    14.6317116000
    9      H      12.5053443000    15.1481361000    14.6714205000
   10      N      13.1221249000    11.7865154000    17.1941461000
   11      N      12.1227943000    13.8442504000    16.4446593000
   12      O      16.4108133000    12.1313491000    10.2097075000
   13      O      15.1190570000    10.0272714000    18.5288177000
   14      O      11.1290189000    10.3657151000    18.8545277000
   15      O       8.2990082000    15.1419389000    18.2749697000
   16      O      13.5562040000    16.9047300000     9.6341685000
   17      N      13.1459147000    16.6060343000    12.5358173000
   18      N      15.4965237000    12.5285272000    13.1505830000
   19      C      11.0143706000    14.5319951000    16.8417490000
   20      C      14.1170956000    11.7921351000    16.3321237000
   21      C      15.9650751000    11.1214508000    15.1360316000
   22      C      11.0953689000    17.8358760000    15.1810458000
   23      C      14.8723675000    13.5645586000    12.5930497000
   24      C      12.4922182000    16.8341150000    13.6409164000
   25      C      11.8319416000    18.0811204000    14.0187143000
   26      C      10.2214631000    13.7490278000    17.7741864000
   27      C      15.2977586000    10.9475056000    16.3546309000
   28      C      13.7878495000    15.4471905000    12.3009395000
   29      C      11.3070969000    16.4441565000    15.5508055000
   30      C      12.1288558000    12.6755315000    17.1472027000
   31      C      15.7878894000    10.0968648000    17.3722738000
   32      C      11.8793668000    19.3617450000    13.4496060000
   33      C      10.9226761000    12.5554385000    17.9638892000
   34      C      17.1459011000    10.4155106000    14.8643386000
   35      C       8.9442376000    19.5584112000    17.6118137000
   36      H       9.4508233000    20.3839259000    17.6632585000
   37      H       8.1255381000    19.7310394000    17.1214803000
   38      C      10.3528342000    18.8531819000    15.7951684000
   39      C      15.2363235000    12.1179618000    14.3756128000
   40      C      14.3593810000    15.1246861000    11.0045300000
   41      C      15.0539669000    13.9171689000    11.1762271000
   42      C      10.4278783000    11.5483961000    18.7950447000
   43      C      11.1261322000    20.3329703000    14.0524750000
   44      H      11.1215417000    21.1866756000    13.6859306000
   45      C      16.9661325000     9.4174721000    17.0587819000
   46      H      17.3312499000     8.8448704000    17.6938039000
   47      C      15.7139749000    13.3261514000    10.1105154000
   48      C      17.5980982000     9.5544504000    15.8707280000
   49      H      18.3676159000     9.0557279000    15.7163935000
   50      C      10.3763483000    20.0885228000    15.1826535000
   51      H       9.8702941000    20.7785556000    15.5427672000
   52      C      14.3384859000    15.7631269000     9.7584399000
   53      C       8.6321772000    19.0697299000    18.9670633000
   54      H       8.2624313000    18.1755258000    18.8979343000
   55      H       9.4568811000    19.0078014000    19.4734733000
   56      C       9.0115299000    13.9744433000    18.4301079000
   57      C      18.9503624000     9.9285128000    13.3515393000
   58      H      19.5718897000     9.9701792000    14.0942739000
   59      H      18.7477221000     8.9961052000    13.1746977000
   60      C       8.5615626000    12.9870674000    19.2757322000
   61      H       7.7659346000    13.1239969000    19.7387356000
   62      C      10.7456831000     9.4004821000    19.7917881000
   63      H      10.9055579000     9.7274130000    20.6904649000
   64      H       9.7994720000     9.2055198000    19.7001520000
   65      C      15.7161443000     9.4532460000    19.6551378000
   66      H      15.8120791000     8.4994678000    19.5104492000
   67      H      16.6046296000     9.8276419000    19.7676734000
   68      C       9.2425547000    11.8006900000    19.4622197000
   69      H       8.8995913000    11.1624303000    20.0457969000
   70      C      15.7371172000    13.9977373000     8.9128156000
   71      H      16.2209588000    13.6411817000     8.2022340000
   72      C      15.0565071000    15.1953969000     8.7359741000
   73      H      15.0882829000    15.6210433000     7.9096416000
   74      C      11.5619574000     8.1528774000    19.5377793000
   75      H      12.5043098000     8.3841001000    19.5056263000
   76      H      11.3162087000     7.7750646000    18.6776862000
   77      C      13.1587044000    20.8344929000    12.0573805000
   78      H      12.4076280000    21.4172194000    11.8660700000
   79      H      13.6124249000    21.1860035000    12.8386987000
   80      C      14.0485738000    20.8689550000    10.9657856000
   81      H      13.6168669000    20.3965673000    10.2359122000
   82      H      14.8240276000    20.3434580000    11.2165791000
   83      C       7.6674238000    19.9281068000    19.7290897000
   84      H       6.8486296000    20.0094367000    19.2146415000
   85      H       8.0457399000    20.8148554000    19.8223335000
   86      C      14.9650728000     9.6661315000    20.8608758000
   87      H      14.0426834000     9.4279437000    20.6759960000
   88      H      14.9800813000    10.6185596000    21.0489710000
   89      C       6.5831864000    16.3007567000    17.1086190000
   90      H       7.0632746000    17.1373790000    17.0218059000
   91      H       6.1201459000    16.1594752000    16.2678177000
   92      C      15.6267041000    10.9876648000    10.4400838000
   93      H      14.7328058000    11.1713958000    10.1105154000
   94      H      15.5578977000    10.8648484000    11.3998513000
   95      C      12.2346021000    18.4933919000     8.5301948000
   96      H      12.3991602000    19.0594225000     9.3002595000
   97      H      11.4025321000    18.0184458000     8.6893522000
   98      C      11.3324346000     7.1381324000    20.6132976000
   99      H      10.3858331000     6.9355137000    20.6534889000
  100      H      11.5874296000     7.5230023000    21.4653525000
  101      C      13.3497586000    17.4870061000     8.4273051000
  102      H      14.1617389000    17.9288152000     8.1331050000
  103      H      13.1190623000    16.8089684000     7.7713836000
  104      C      15.3510178000     8.9895681000    22.0601833000
  105      H      15.2307208000     8.0388870000    21.9122794000
  106      H      16.2998699000     9.1391348000    22.1904030000
  107      C      20.7262645000    10.0357673000    11.6361760000
  108      H      21.3901812000    10.0388088000    12.3435423000
  109      H      20.5674991000     9.1104399000    11.3950284000
  110      C      15.4689195000     8.5757414000    10.1908980000
  111      H      14.6112143000     8.5534716000     9.7391481000
  112      H      15.2768533000     8.5751951000    11.1426272000
  113      C      12.0829851000     5.8709485000    20.4187719000
  114      H      11.8791032000     5.2653169000    21.1357841000
  115      H      11.8295242000     5.4733359000    19.5827935000
  116      H      13.0251303000     6.0559573000    20.4139489000
  117      C      12.0693240000    19.3428850000     7.3485715000
  118      H      11.8390644000    18.7693987000     6.6026215000
  119      H      12.9319963000    19.7392755000     7.1492228000
  120      C      19.5528736000    10.5502129000    12.1522319000
  121      H      19.7093214000    11.4844120000    12.3564035000
  122      H      18.8886234000    10.5224830000    11.4448655000
  123      C      14.6614194000     9.3375091000    23.3286197000
  124      H      15.0088477000     8.7948156000    24.0408090000
  125      H      14.8113782000    10.2638327000    23.5295761000
  126      H      13.7189659000     9.1785619000    23.2337683000
  127      C       7.5527856000    15.2880186000    17.2066857000
  128      H       8.1550812000    15.4029118000    16.4559129000
  129      H       7.0928610000    14.4446305000    17.0684278000
  130      C      16.0262801000     9.8303456000     9.9079514000
  131      H      15.9623692000     9.9403089000     8.9465763000
  132      H      16.9727204000     9.7545513000    10.1105154000
  133      C      11.1206074000    20.3871893000     7.3935857000
  134      H      11.1446390000    20.8764371000     6.5688609000
  135      H      10.2432576000    20.0172803000     7.5205901000
  136      H      11.3280117000    20.9770242000     8.1218515000
  137      C      21.3083710000    10.7266657000    10.4561603000
  138      H      22.1006944000    10.2640489000    10.1732138000
  139      H      20.6691154000    10.7306814000     9.7407558000
  140      H      21.5324041000    11.6307558000    10.6908773000
  141      C       7.3328736000    19.3970613000    21.0891623000
  142      H       6.7146047000    19.9920334000    21.5216203000
  143      H       6.9345570000    18.5284529000    21.0055644000
  144      H       8.1344700000    19.3338715000    21.6132564000
  145      C      14.5263882000    22.0774159000    10.4416915000
  146      H      13.7586074000    22.5934452000    10.1523143000
  147      H      14.9380491000    22.5671254000    11.1699573000
  148      C      15.5040661000    22.0465294000     9.3082977000
  149      H      15.7196571000    22.9447873000     9.0478583000
  150      H      16.3037028000    21.5946549000     9.5880289000
  151      H      15.1165550000    21.5805353000     8.5639554000
  152      C       5.5565906000    16.5132914000    18.1182237000
  153      H       5.0851084000    15.6754736000    18.2532664000
  154      H       5.9936888000    16.7367130000    18.9542021000
  155      C       4.5198059000    17.6033945000    17.8095548000
  156      H       3.9077376000    17.6809213000    18.5442511000
  157      H       4.9675882000    18.4417210000    17.6761198000
  158      H       4.0372176000    17.3707472000    17.0137677000
  159      C      16.0664960000     7.3789297000     9.9240279000
  160      H      15.4648420000     6.6645972000    10.1458837000
  161      H      16.2879840000     7.3334613000     8.9915905000
  162      H      16.8669951000     7.2979093000    10.4481221000
  163      N      35.7363788000    14.5021920000    35.0131860000
  164      O      40.0975051000    10.4317526000    31.2765234000
  165      O      37.1385137000     9.4270916000    35.8731183000
  166      N      35.6105754000    16.4702361000    33.0701793000
  167      H      36.1585169000    15.8428067000    33.2831930000
  168      N      39.1116562000    13.1944706000    31.7105891000
  169      O      32.0580214000    18.3434217000    34.5537194000
  170      N      37.6270204000    13.0358564000    33.5978103000
  171      H      37.3031119000    13.8312884000    33.5581013000
  172      N      36.6863314000    17.1929092000    31.0353758000
  173      N      37.6856620000    15.1351742000    31.7848625000
  174      O      33.3976430000    16.8480755000    38.0198144000
  175      O      34.6893993000    18.9521532000    29.7007041000
  176      O      38.6794374000    18.6137095000    29.3749941000
  177      O      41.5094480000    13.8374857000    29.9545522000
  178      O      36.2522523000    12.0746945000    38.5953533000
  179      N      36.6625416000    12.3733903000    35.6937045000
  180      N      34.3119325000    16.4508974000    35.0789389000
  181      C      38.7940856000    14.4474295000    31.3877728000
  182      C      35.6913606000    17.1872895000    31.8973981000
  183      C      33.8433811000    17.8579738000    33.0934902000
  184      C      38.7130874000    11.1435486000    33.0484760000
  185      C      34.9360888000    15.4148660000    35.6364722000
  186      C      37.3162380000    12.1453096000    34.5886054000
  187      C      37.9765147000    10.8983041000    34.2108075000
  188      C      39.5869931000    15.2303968000    30.4553354000
  189      C      34.5106977000    18.0319190000    31.8748910000
  190      C      36.0206068000    13.5322341000    35.9285823000
  191      C      38.5013593000    12.5352681000    32.6787163000
  192      C      37.6796005000    16.3038931000    31.0823192000
  193      C      34.0205669000    18.8825598000    30.8572481000
  194      C      37.9290895000     9.6176796000    34.7799159000
  195      C      38.8857802000    16.4239861000    30.2656326000
  196      C      32.6625551000    18.5639139000    33.3651832000
  197      C      40.8642186000     9.4210134000    30.6177081000
  198      H      40.3576329000     8.5954987000    30.5662633000
  199      H      41.6829182000     9.2483852000    31.1080416000
  200      C      39.4556221000    10.1262427000    32.4343534000
  201      C      34.5721328000    16.8614628000    33.8539090000
  202      C      35.4490753000    13.8547385000    37.2249918000
  203      C      34.7544894000    15.0622557000    37.0532947000
  204      C      39.3805780000    17.4310285000    29.4344772000
  205      C      38.6823240000     8.6464542000    34.1770468000
  206      H      38.6869146000     7.7927490000    34.5435912000
  207      C      32.8423238000    19.5619525000    31.1707400000
  208      H      32.4772064000    20.1345541000    30.5357179000
  209      C      34.0944814000    15.6532731000    38.1190064000
  210      C      32.2103581000    19.4249742000    32.3587939000
  211      H      31.4408404000    19.9236967000    32.5131283000
  212      C      39.4321080000     8.8909018000    33.0468684000
  213      H      39.9381621000     8.2008690000    32.6867546000
  214      C      35.4699704000    13.2162976000    38.4710819000
  215      C      41.1762791000     9.9096947000    29.2624586000
  216      H      41.5460250000    10.8038988000    29.3315875000
  217      H      40.3515752000     9.9716232000    28.7560486000
  218      C      40.7969264000    15.0049812000    29.7994139000
  219      C      30.8580939000    19.0509118000    34.8779825000
  220      H      30.2365665000    19.0092454000    34.1352479000
  221      H      31.0607342000    19.9833194000    35.0548241000
  222      C      41.2468937000    15.9923572000    28.9537896000
  223      H      42.0425217000    15.8554276000    28.4907862000
  224      C      39.0627732000    19.5789424000    28.4377337000
  225      H      38.9028983000    19.2520116000    27.5390570000
  226      H      40.0089843000    19.7739047000    28.5293698000
  227      C      34.0923120000    19.5261786000    28.5743840000
  228      H      33.9963771000    20.4799568000    28.7190726000
  229      H      33.2038267000    19.1517827000    28.4618485000
  230      C      40.5659015000    17.1787346000    28.7673021000
  231      H      40.9088649000    17.8169943000    28.1837249000
  232      C      34.0713391000    14.9816873000    39.3167062000
  233      H      33.5874975000    15.3382429000    40.0272878000
  234      C      34.7519491000    13.7840276000    39.4935478000
  235      H      34.7201733000    13.3583813000    40.3198803000
  236      C      38.2464989000    20.8265472000    28.6917425000
  237      H      37.3041465000    20.5953245000    28.7238956000
  238      H      38.4922476000    21.2043600000    29.5518357000
  239      C      36.6497518000     8.1449317000    36.1721414000
  240      H      37.4008283000     7.5622052000    36.3634518000
  241      H      36.1960314000     7.7934211000    35.3908231000
  242      C      35.7598824000     8.1104696000    37.2637362000
  243      H      36.1915893000     8.5828572000    37.9936097000
  244      H      34.9844287000     8.6359666000    37.0129427000
  245      C      42.1410325000     9.0513177000    28.5004321000
  246      H      42.9598267000     8.9699879000    29.0148803000
  247      H      41.7627164000     8.1645692000    28.4071884000
  248      C      34.8433835000    19.3132931000    27.3686460000
  249      H      35.7657729000    19.5514809000    27.5535258000
  250      H      34.8283750000    18.3608650000    27.1805509000
  251      C      43.2252699000    12.6786679000    31.1209028000
  252      H      42.7451817000    11.8420456000    31.2077159000
  253      H      43.6883103000    12.8199494000    31.9617041000
  254      C      34.1817522000    17.9917598000    37.7894380000
  255      H      35.0756505000    17.8080288000    38.1190064000
  256      H      34.2505586000    18.1145762000    36.8296705000
  257      C      37.5738542000    10.4860327000    39.6993271000
  258      H      37.4092960000     9.9200020000    38.9292624000
  259      H      38.4059242000    10.9609788000    39.5401697000
  260      C      38.4760217000    21.8412921000    27.6162242000
  261      H      39.4226232000    22.0439109000    27.5760329000
  262      H      38.2210266000    21.4564223000    26.7641693000
  263      C      36.4586977000    11.4924184000    39.8022167000
  264      H      35.6467174000    11.0506093000    40.0964168000
  265      H      36.6893940000    12.1704561000    40.4581382000
  266      C      34.4574384000    19.9898565000    26.1693386000
  267      H      34.5777355000    20.9405376000    26.3172424000
  268      H      33.5085863000    19.8402898000    26.0391188000
  269      C      29.0821918000    18.9436572000    36.5933459000
  270      H      28.4182750000    18.9406158000    35.8859796000
  271      H      29.2409571000    19.8689847000    36.8344935000
  272      C      34.3395368000    20.4036831000    38.0386239000
  273      H      35.1972420000    20.4259530000    38.4903737000
  274      H      34.5316030000    20.4042295000    37.0868946000
  275      C      37.7254712000    23.1084761000    27.8107499000
  276      H      37.9293531000    23.7141077000    27.0937377000
  277      H      37.9789321000    23.5060887000    28.6467283000
  278      H      36.7833259000    22.9234673000    27.8155729000
  279      C      37.7391323000     9.6365396000    40.8809504000
  280      H      37.9693919000    10.2100259000    41.6269003000
  281      H      36.8764600000     9.2401491000    41.0802991000
  282      C      30.2555827000    18.4292116000    36.0772900000
  283      H      30.0991348000    17.4950126000    35.8731183000
  284      H      30.9198329000    18.4569416000    36.7846563000
  285      C      35.1470368000    19.6419155000    24.9009021000
  286      H      34.7996085000    20.1846090000    24.1887129000
  287      H      34.9970780000    18.7155919000    24.6999458000
  288      H      36.0894904000    19.8008626000    24.9957535000
  289      C      42.2556707000    13.6914060000    31.0228361000
  290      H      41.6533751000    13.5765128000    31.7736090000
  291      H      42.7155953000    14.5347941000    31.1610941000
  292      C      33.7821761000    19.1490790000    38.3215704000
  293      H      33.8460871000    19.0391156000    39.2829455000
  294      H      32.8357359000    19.2248733000    38.1190064000
  295      C      38.6878489000     8.5922353000    40.8359361000
  296      H      38.6638173000     8.1029874000    41.6606610000
  297      H      39.5651986000     8.9621443000    40.7089317000
  298      H      38.4804446000     8.0024004000    40.1076704000
  299      C      28.5000853000    18.2527589000    37.7733615000
  300      H      27.7077619000    18.7153757000    38.0563080000
  301      H      29.1393409000    18.2487432000    38.4887661000
  302      H      28.2760522000    17.3486688000    37.5386445000
  303      C      42.4755827000     9.5823633000    27.1403596000
  304      H      43.0938516000     8.9873912000    26.7079015000
  305      H      42.8738993000    10.4509717000    27.2239574000
  306      H      41.6739863000     9.6455531000    26.6162655000
  307      C      35.2820681000     6.9020087000    37.7878304000
  308      H      36.0498488000     6.3859793000    38.0772075000
  309      H      34.8704072000     6.4122992000    37.0595646000
  310      C      34.3043902000     6.9328952000    38.9212241000
  311      H      34.0887992000     6.0346373000    39.1816635000
  312      H      33.5047535000     7.3847697000    38.6414929000
  313      H      34.6919013000     7.3988892000    39.6655664000
  314      C      44.2518656000    12.4661332000    30.1112981000
  315      H      44.7233479000    13.3039509000    29.9762555000
  316      H      43.8147675000    12.2427116000    29.2753198000
  317      C      45.2886504000    11.3760301000    30.4199671000
  318      H      45.9007187000    11.2985033000    29.6852707000
  319      H      44.8408681000    10.5377036000    30.5534021000
  320      H      45.7712386000    11.6086774000    31.2157542000
  321      C      33.7419602000    21.6004949000    38.3054939000
  322      H      34.3436143000    22.3148274000    38.0836381000
  323      H      33.5204722000    21.6459633000    39.2379313000
  324      H      32.9414611000    21.6815152000    37.7813998000
 ----------------------------------------------------------------
 Nuclear Repulsion Energy =       33844.19935086 hartrees
 There are      586 alpha and      586 beta electrons
 Requested basis set is 6-31G(d,p)
 There are 1132 shells and 3220 basis functions

 Total QAlloc Memory Limit   2000 MB
 Mega-Array Size       188 MB
 MEM_STATIC part       192 MB

 A cutoff of  1.0D-12 yielded  70332 shell pairs
 There are    620080 function pairs
 Smallest overlap matrix eigenvalue = 1.72E-04

 Scale SEOQF with 1.000000e-03/1.000000e-03/1.000000e-03

 Standard Electronic Orientation quadrupole field applied
 Nucleus-field energy     =    -0.0000003439 hartrees
 Can only be proccessed by the old fragmo guess code
 Guess MOs from converged MOs on fragments

QCSCRATCH   is /scratch/sanghita
QCFILEPREF  is /scratch/sanghita/qchem125926/

-----------------------------------------------------------------
 SCF on fragment 1 out of 2 in state 1
-----------------------------------------------------------------

/home/chance/software/ccats2023/exe/qcprog.exe /scratch/sanghita/qchem125926/Frg1s1.input /scratch/sanghita/qchem125926/Frg1s1/
                  Welcome to Q-Chem
     A Quantum Leap Into The Future Of Chemistry


 Q-Chem 6.1 (devel), Q-Chem, Inc., Pleasanton, CA (2022)

 E. Epifanovsky,  A. T. B. Gilbert,  Xintian Feng,  Joonho Lee,  Yuezhi Mao,  
 N. Mardirossian,  P. Pokhilko,  A. White,  M. Wormit,  M. P. Coons,  
 A. L. Dempwolff,  Zhengting Gan,  D. Hait,  P. R. Horn,  L. D. Jacobson,  
 I. Kaliman,  J. Kussmann,  A. W. Lange,  Ka Un Lao,  D. S. Levine,  Jie Liu,  
 S. C. McKenzie,  A. F. Morrison,  K. Nanda,  F. Plasser,  D. R. Rehn,  
 M. L. Vidal,  Zhi-Qiang You,  Ying Zhu,  B. Alam,  B. Albrecht,  
 A. Aldossary,  E. Alguire,  J. H. Andersen,  V. Athavale,  D. Barton,  
 K. Begam,  A. Behn,  N. Bellonzi,  Y. A. Bernard,  E. J. Berquist,  
 H. Burton,  A. Carreras,  K. Carter-Fenk,  Mathew Chow,  Romit Chakraborty,  
 Chandrima Chakravarty,  Junhan Chen,  A. D. Chien,  K. D. Closser,  
 V. Cofer-Shabica,  L. Cunha,  S. Dasgupta,  Jia Deng,  M. de Wergifosse,  
 M. Diedenhofen,  Hainam Do,  S. Ehlert,  Po-Tung Fang,  S. Fatehi,  
 Qingguo Feng,  T. Friedhoff,  Thomas Froitzheim,  B. Ganoe,  J. Gayvert,  
 Qinghui Ge,  G. Gidofalvi,  M. Goldey,  Montgomery Gray,  J. Gomes,  
 C. Gonzalez-Espinoza,  S. Gulania,  A. Gunina,  J. A. Gyamfi,  
 M. W. D. Hanson-Heine,  P. H. P. Harbach,  A. W. Hauser,  M. F. Herbst,  
 M. Hernandez Vera,  M. Hodecker,  Z. C. Holden,  S. Houck,  Xunkun Huang,  
 Kerwin Hui,  B. C. Huynh,  K. Ikeda,  M. Ivanov,  Hyunjun Ji,  Zuxin Jin,  
 Hanjie Jiang,  Subrata Jana,  B. Kaduk,  S. Kaehler,  R. Kang,  
 K. Khistyaev,  Jaehoon Kim,  Yongbin Kim,  P. Klunzinger,  Z. Koczor-Benda,  
 Joong Hoon Koh,  D. Kosenkov,  Saikiran Kotaru,  L. Koulias,  T. Kowalczyk,  
 C. M. Krauter,  K. Kue,  A. Kunitsa,  T. Kus,  A. Landau,  K. V. Lawler,  
 D. Lefrancois,  S. Lehtola,  Rain Li,  Shaozhi Li,  Yi-Pei Li,  
 Jiashu Liang,  M. Liebenthal,  Hung-Hsuan Lin,  You-Sheng Lin,  Fenglai Liu,  
 Kuan-Yu Liu,  M. Loipersberger,  A. Luenser,  C. Malbon,  A. Manjanath,  
 P. Manohar,  E. Mansoor,  S. F. Manzer,  Shan-Ping Mao,  A. V. Marenich,  
 T. Markovich,  S. Mason,  F. Matz,  S. A. Maurer,  P. F. McLaughlin,  
 M. F. S. J. Menger,  J.-M. Mewes,  S. A. Mewes,  P. Morgante,  
 Mohammad Mostafanejad,  J. W. Mullinax,  K. J. Oosterbaan,  G. Paran,  
 V. Parravicini,  Alexander C. Paul,  Suranjan K. Paul,  F. Pavosevic,  
 Zheng Pei,  S. Prager,  E. I. Proynov,  E. Ramos,  B. Rana,  A. E. Rask,  
 A. Rettig,  R. M. Richard,  F. Rob,  E. Rossomme,  T. Scheele,  M. Scheurer,  
 M. Schneider,  P. E. Schneider,  N. Sergueev,  S. M. Sharada,  
 Hengyuan Shen,  W. Skomorowski,  D. W. Small,  C. J. Stein,  Yingli Su,  
 Yu-Chuan Su,  E. J. Sundstrom,  Zhen Tao,  J. Thirman,  Hung-Yi Tsai,  
 T. Tsuchimochi,  N. M. Tubman,  C. Utku,  S. P. Veccham,  O. Vydrov,  
 J. Wenzel,  Jonathan Wong,  J. Witte,  A. Yamada,  Chou-Hsun Yang,  Kun Yao,  
 S. Yeganeh,  S. R. Yost,  A. Zech,  F. Zeller,  Igor Ying Zhang,  
 Xing Zhang,  Yu Zhang,  D. Zuev,  A. Aspuru-Guzik,  A. T. Bell,  
 N. A. Besley,  K. B. Bravaya,  B. R. Brooks,  D. Casanova,  Jeng-Da Chai,  
 Hsing-Ta Chen,  S. Coriani,  C. J. Cramer,  A. E. DePrince, III,  
 R. A. DiStasio Jr.,  A. Dreuw,  B. D. Dunietz,  T. R. Furlani,  
 W. A. Goddard III,  S. Grimme,  S. Hammes-Schiffer,  T. Head-Gordon,  
 W. J. Hehre,  Chao-Ping Hsu,  T.-C. Jagau,  Yousung Jung,  A. Klamt,  
 Jing Kong,  D. S. Lambrecht,  Xiangyuan Li,  WanZhen Liang,  N. J. Mayhall,  
 C. W. McCurdy,  J. B. Neaton,  T. Neudecker,  C. Ochsenfeld,  
 J. A. Parkhill,  R. Peverati,  V. A. Rassolov,  Haisheng Ren,  Yihan Shao,  
 L. V. Slipchenko,  R. P. Steele,  J. E. Subotnik,  A. J. W. Thom,  
 A. Tkatchenko,  D. G. Truhlar,  T. Van Voorhis,  Fan Wang,  
 T. A. Wesolowski,  K. B. Whaley,  H. L. Woodcock III,  P. M. Zimmerman,  
 S. Faraji,  P. M. W. Gill,  M. Head-Gordon,  J. M. Herbert,  A. I. Krylov

 Contributors to earlier versions of Q-Chem not listed above: 
 R. D. Adamson,  B. Austin,  R. Baer,  J. Baker,  G. J. O. Beran,  
 K. Brandhorst,  S. T. Brown,  E. F. C. Byrd,  Arup K. Chakraborty,  
 G. K. L. Chan,  Chun-Min Chang,  Yunqing Chen,  C.-L. Cheng,  
 Siu Hung Chien,  D. M. Chipman,  D. L. Crittenden,  H. Dachsel,  
 R. J. Doerksen,  A. D. Dutoi,  R. G. Edgar,  J. Fosso-Tande,  
 L. Fusti-Molnar,  D. Ghosh,  A. Ghysels,  A. Golubeva-Zadorozhnaya,  
 J. Gonthier,  M. S. Gordon,  S. R. Gwaltney,  G. Hawkins,  J. E. Herr,  
 A. Heyden,  S. Hirata,  E. G. Hohenstein,  G. Kedziora,  F. J. Keil,  
 C. Kelley,  Jihan Kim,  R. A. King,  R. Z. Khaliullin,  P. P. Korambath,  
 W. Kurlancheek,  A. Laurent,  A. M. Lee,  M. S. Lee,  S. V. Levchenko,  
 Ching Yeh Lin,  D. Liotard,  E. Livshits,  R. C. Lochan,  I. Lotan,  
 L. A. Martinez-Martinez,  P. E. Maslen,  N. Nair,  D. P. O'Neill,  
 D. Neuhauser,  E. Neuscamman,  C. M. Oana,  R. Olivares-Amaya,  R. Olson,  
 T. M. Perrine,  B. Peters,  P. A. Pieniazek,  A. Prociuk,  Y. M. Rhee,  
 J. Ritchie,  M. A. Rohrdanz,  E. Rosta,  N. J. Russ,  H. F. Schaefer III,  
 M. W. Schmidt,  N. E. Schultz,  S. Sharma,  N. Shenvi,  C. D. Sherrill,  
 A. C. Simmonett,  A. Sodt,  T. Stein,  D. Stuck,  K. S. Thanthiriwatte,  
 V. Vanovschi,  L. Vogt,  Tao Wang,  A. Warshel,  M. A. Watson,  
 C. F. Williams,  Q. Wu,  X. Xu,  Jun Yang,  W. Zhang,  Yan Zhao

   Please cite Q-Chem as follows:
  "Software for the frontiers of quantum chemistry:
   An overview of developments in the Q-Chem 5 package"
   J. Chem. Phys. 155, 084801 (2021)
   https://doi.org/10.1063/5.0055522 (open access)

 Q-Chem 6.1.0 for Intel X86 EM64T Linux

 Parts of Q-Chem use Armadillo 9.900.5 (Nocturnal Misbehaviour).
 http://arma.sourceforge.net/

 Q-Chem begins on Mon Feb 10 21:36:14 2025  

 Host: n136.cluster
0

     Scratch files written to /scratch/sanghita/qchem125926/Frg1s1//
 Processing $rem in /home/chance/software/ccats2023/config/preferences:
 Processing $rem in /home/sanghita/.qchemrc:

 Checking the input file for inconsistencies... 	...done.

--------------------------------------------------------------
User input:
--------------------------------------------------------------
$molecule
0 1
 7	14.0720775000	14.4772325000	13.2163359000
 8	9.7109512000	18.5476720000	16.9529985000
 8	12.6699426000	19.5523330000	12.3564035000
 7	14.1978809000	12.5091885000	15.1593425000
 1	13.6499394000	13.1366178000	14.9463288000
 7	10.6968001000	15.7849540000	16.5189328000
 8	17.7504349000	10.6360029000	13.6758024000
 7	12.1814359000	15.9435682000	14.6317116000
 1	12.5053443000	15.1481361000	14.6714205000
 7	13.1221249000	11.7865154000	17.1941461000
 7	12.1227943000	13.8442504000	16.4446593000
 8	16.4108133000	12.1313491000	10.2097075000
 8	15.1190570000	10.0272714000	18.5288177000
 8	11.1290189000	10.3657151000	18.8545277000
 8	8.2990082000	15.1419389000	18.2749697000
 8	13.5562040000	16.9047300000	9.6341685000
 7	13.1459147000	16.6060343000	12.5358173000
 7	15.4965237000	12.5285272000	13.1505830000
 6	11.0143706000	14.5319951000	16.8417490000
 6	14.1170956000	11.7921351000	16.3321237000
 6	15.9650751000	11.1214508000	15.1360316000
 6	11.0953689000	17.8358760000	15.1810458000
 6	14.8723675000	13.5645586000	12.5930497000
 6	12.4922182000	16.8341150000	13.6409164000
 6	11.8319416000	18.0811204000	14.0187143000
 6	10.2214631000	13.7490278000	17.7741864000
 6	15.2977586000	10.9475056000	16.3546309000
 6	13.7878495000	15.4471905000	12.3009395000
 6	11.3070969000	16.4441565000	15.5508055000
 6	12.1288558000	12.6755315000	17.1472027000
 6	15.7878894000	10.0968648000	17.3722738000
 6	11.8793668000	19.3617450000	13.4496060000
 6	10.9226761000	12.5554385000	17.9638892000
 6	17.1459011000	10.4155106000	14.8643386000
 6	8.9442376000	19.5584112000	17.6118137000
 1	9.4508233000	20.3839259000	17.6632585000
 1	8.1255381000	19.7310394000	17.1214803000
 6	10.3528342000	18.8531819000	15.7951684000
 6	15.2363235000	12.1179618000	14.3756128000
 6	14.3593810000	15.1246861000	11.0045300000
 6	15.0539669000	13.9171689000	11.1762271000
 6	10.4278783000	11.5483961000	18.7950447000
 6	11.1261322000	20.3329703000	14.0524750000
 1	11.1215417000	21.1866756000	13.6859306000
 6	16.9661325000	9.4174721000	17.0587819000
 1	17.3312499000	8.8448704000	17.6938039000
 6	15.7139749000	13.3261514000	10.1105154000
 6	17.5980982000	9.5544504000	15.8707280000
 1	18.3676159000	9.0557279000	15.7163935000
 6	10.3763483000	20.0885228000	15.1826535000
 1	9.8702941000	20.7785556000	15.5427672000
 6	14.3384859000	15.7631269000	9.7584399000
 6	8.6321772000	19.0697299000	18.9670633000
 1	8.2624313000	18.1755258000	18.8979343000
 1	9.4568811000	19.0078014000	19.4734733000
 6	9.0115299000	13.9744433000	18.4301079000
 6	18.9503624000	9.9285128000	13.3515393000
 1	19.5718897000	9.9701792000	14.0942739000
 1	18.7477221000	8.9961052000	13.1746977000
 6	8.5615626000	12.9870674000	19.2757322000
 1	7.7659346000	13.1239969000	19.7387356000
 6	10.7456831000	9.4004821000	19.7917881000
 1	10.9055579000	9.7274130000	20.6904649000
 1	9.7994720000	9.2055198000	19.7001520000
 6	15.7161443000	9.4532460000	19.6551378000
 1	15.8120791000	8.4994678000	19.5104492000
 1	16.6046296000	9.8276419000	19.7676734000
 6	9.2425547000	11.8006900000	19.4622197000
 1	8.8995913000	11.1624303000	20.0457969000
 6	15.7371172000	13.9977373000	8.9128156000
 1	16.2209588000	13.6411817000	8.2022340000
 6	15.0565071000	15.1953969000	8.7359741000
 1	15.0882829000	15.6210433000	7.9096416000
 6	11.5619574000	8.1528774000	19.5377793000
 1	12.5043098000	8.3841001000	19.5056263000
 1	11.3162087000	7.7750646000	18.6776862000
 6	13.1587044000	20.8344929000	12.0573805000
 1	12.4076280000	21.4172194000	11.8660700000
 1	13.6124249000	21.1860035000	12.8386987000
 6	14.0485738000	20.8689550000	10.9657856000
 1	13.6168669000	20.3965673000	10.2359122000
 1	14.8240276000	20.3434580000	11.2165791000
 6	7.6674238000	19.9281068000	19.7290897000
 1	6.8486296000	20.0094367000	19.2146415000
 1	8.0457399000	20.8148554000	19.8223335000
 6	14.9650728000	9.6661315000	20.8608758000
 1	14.0426834000	9.4279437000	20.6759960000
 1	14.9800813000	10.6185596000	21.0489710000
 6	6.5831864000	16.3007567000	17.1086190000
 1	7.0632746000	17.1373790000	17.0218059000
 1	6.1201459000	16.1594752000	16.2678177000
 6	15.6267041000	10.9876648000	10.4400838000
 1	14.7328058000	11.1713958000	10.1105154000
 1	15.5578977000	10.8648484000	11.3998513000
 6	12.2346021000	18.4933919000	8.5301948000
 1	12.3991602000	19.0594225000	9.3002595000
 1	11.4025321000	18.0184458000	8.6893522000
 6	11.3324346000	7.1381324000	20.6132976000
 1	10.3858331000	6.9355137000	20.6534889000
 1	11.5874296000	7.5230023000	21.4653525000
 6	13.3497586000	17.4870061000	8.4273051000
 1	14.1617389000	17.9288152000	8.1331050000
 1	13.1190623000	16.8089684000	7.7713836000
 6	15.3510178000	8.9895681000	22.0601833000
 1	15.2307208000	8.0388870000	21.9122794000
 1	16.2998699000	9.1391348000	22.1904030000
 6	20.7262645000	10.0357673000	11.6361760000
 1	21.3901812000	10.0388088000	12.3435423000
 1	20.5674991000	9.1104399000	11.3950284000
 6	15.4689195000	8.5757414000	10.1908980000
 1	14.6112143000	8.5534716000	9.7391481000
 1	15.2768533000	8.5751951000	11.1426272000
 6	12.0829851000	5.8709485000	20.4187719000
 1	11.8791032000	5.2653169000	21.1357841000
 1	11.8295242000	5.4733359000	19.5827935000
 1	13.0251303000	6.0559573000	20.4139489000
 6	12.0693240000	19.3428850000	7.3485715000
 1	11.8390644000	18.7693987000	6.6026215000
 1	12.9319963000	19.7392755000	7.1492228000
 6	19.5528736000	10.5502129000	12.1522319000
 1	19.7093214000	11.4844120000	12.3564035000
 1	18.8886234000	10.5224830000	11.4448655000
 6	14.6614194000	9.3375091000	23.3286197000
 1	15.0088477000	8.7948156000	24.0408090000
 1	14.8113782000	10.2638327000	23.5295761000
 1	13.7189659000	9.1785619000	23.2337683000
 6	7.5527856000	15.2880186000	17.2066857000
 1	8.1550812000	15.4029118000	16.4559129000
 1	7.0928610000	14.4446305000	17.0684278000
 6	16.0262801000	9.8303456000	9.9079514000
 1	15.9623692000	9.9403089000	8.9465763000
 1	16.9727204000	9.7545513000	10.1105154000
 6	11.1206074000	20.3871893000	7.3935857000
 1	11.1446390000	20.8764371000	6.5688609000
 1	10.2432576000	20.0172803000	7.5205901000
 1	11.3280117000	20.9770242000	8.1218515000
 6	21.3083710000	10.7266657000	10.4561603000
 1	22.1006944000	10.2640489000	10.1732138000
 1	20.6691154000	10.7306814000	9.7407558000
 1	21.5324041000	11.6307558000	10.6908773000
 6	7.3328736000	19.3970613000	21.0891623000
 1	6.7146047000	19.9920334000	21.5216203000
 1	6.9345570000	18.5284529000	21.0055644000
 1	8.1344700000	19.3338715000	21.6132564000
 6	14.5263882000	22.0774159000	10.4416915000
 1	13.7586074000	22.5934452000	10.1523143000
 1	14.9380491000	22.5671254000	11.1699573000
 6	15.5040661000	22.0465294000	9.3082977000
 1	15.7196571000	22.9447873000	9.0478583000
 1	16.3037028000	21.5946549000	9.5880289000
 1	15.1165550000	21.5805353000	8.5639554000
 6	5.5565906000	16.5132914000	18.1182237000
 1	5.0851084000	15.6754736000	18.2532664000
 1	5.9936888000	16.7367130000	18.9542021000
 6	4.5198059000	17.6033945000	17.8095548000
 1	3.9077376000	17.6809213000	18.5442511000
 1	4.9675882000	18.4417210000	17.6761198000
 1	4.0372176000	17.3707472000	17.0137677000
 6	16.0664960000	7.3789297000	9.9240279000
 1	15.4648420000	6.6645972000	10.1458837000
 1	16.2879840000	7.3334613000	8.9915905000
 1	16.8669951000	7.2979093000	10.4481221000
$end

$rem
METHOD		LRC-WPBE
BASIS		6-31G**
SYM_IGNORE		TRUE
SCF_PRINT_FRGM		TRUE
CIS_N_ROOTS		12
CIS_SINGLETS		1
CIS_TRIPLETS		0
RPA		2
!required keywords
JOBTYPE		SP
SYM_IGNORE		TRUE
SUBSYSTEM		TRUE
SAVE_SUBSYSTEM		TRUE
GEN_SCFMAN		0
ECP		0
$end
--------------------------------------------------------------
 ----------------------------------------------------------------
             Standard Nuclear Orientation (Angstroms)
    I     Atom           X                Y                Z
 ----------------------------------------------------------------
    1      N      14.0720775000    14.4772325000    13.2163359000
    2      O       9.7109512000    18.5476720000    16.9529985000
    3      O      12.6699426000    19.5523330000    12.3564035000
    4      N      14.1978809000    12.5091885000    15.1593425000
    5      H      13.6499394000    13.1366178000    14.9463288000
    6      N      10.6968001000    15.7849540000    16.5189328000
    7      O      17.7504349000    10.6360029000    13.6758024000
    8      N      12.1814359000    15.9435682000    14.6317116000
    9      H      12.5053443000    15.1481361000    14.6714205000
   10      N      13.1221249000    11.7865154000    17.1941461000
   11      N      12.1227943000    13.8442504000    16.4446593000
   12      O      16.4108133000    12.1313491000    10.2097075000
   13      O      15.1190570000    10.0272714000    18.5288177000
   14      O      11.1290189000    10.3657151000    18.8545277000
   15      O       8.2990082000    15.1419389000    18.2749697000
   16      O      13.5562040000    16.9047300000     9.6341685000
   17      N      13.1459147000    16.6060343000    12.5358173000
   18      N      15.4965237000    12.5285272000    13.1505830000
   19      C      11.0143706000    14.5319951000    16.8417490000
   20      C      14.1170956000    11.7921351000    16.3321237000
   21      C      15.9650751000    11.1214508000    15.1360316000
   22      C      11.0953689000    17.8358760000    15.1810458000
   23      C      14.8723675000    13.5645586000    12.5930497000
   24      C      12.4922182000    16.8341150000    13.6409164000
   25      C      11.8319416000    18.0811204000    14.0187143000
   26      C      10.2214631000    13.7490278000    17.7741864000
   27      C      15.2977586000    10.9475056000    16.3546309000
   28      C      13.7878495000    15.4471905000    12.3009395000
   29      C      11.3070969000    16.4441565000    15.5508055000
   30      C      12.1288558000    12.6755315000    17.1472027000
   31      C      15.7878894000    10.0968648000    17.3722738000
   32      C      11.8793668000    19.3617450000    13.4496060000
   33      C      10.9226761000    12.5554385000    17.9638892000
   34      C      17.1459011000    10.4155106000    14.8643386000
   35      C       8.9442376000    19.5584112000    17.6118137000
   36      H       9.4508233000    20.3839259000    17.6632585000
   37      H       8.1255381000    19.7310394000    17.1214803000
   38      C      10.3528342000    18.8531819000    15.7951684000
   39      C      15.2363235000    12.1179618000    14.3756128000
   40      C      14.3593810000    15.1246861000    11.0045300000
   41      C      15.0539669000    13.9171689000    11.1762271000
   42      C      10.4278783000    11.5483961000    18.7950447000
   43      C      11.1261322000    20.3329703000    14.0524750000
   44      H      11.1215417000    21.1866756000    13.6859306000
   45      C      16.9661325000     9.4174721000    17.0587819000
   46      H      17.3312499000     8.8448704000    17.6938039000
   47      C      15.7139749000    13.3261514000    10.1105154000
   48      C      17.5980982000     9.5544504000    15.8707280000
   49      H      18.3676159000     9.0557279000    15.7163935000
   50      C      10.3763483000    20.0885228000    15.1826535000
   51      H       9.8702941000    20.7785556000    15.5427672000
   52      C      14.3384859000    15.7631269000     9.7584399000
   53      C       8.6321772000    19.0697299000    18.9670633000
   54      H       8.2624313000    18.1755258000    18.8979343000
   55      H       9.4568811000    19.0078014000    19.4734733000
   56      C       9.0115299000    13.9744433000    18.4301079000
   57      C      18.9503624000     9.9285128000    13.3515393000
   58      H      19.5718897000     9.9701792000    14.0942739000
   59      H      18.7477221000     8.9961052000    13.1746977000
   60      C       8.5615626000    12.9870674000    19.2757322000
   61      H       7.7659346000    13.1239969000    19.7387356000
   62      C      10.7456831000     9.4004821000    19.7917881000
   63      H      10.9055579000     9.7274130000    20.6904649000
   64      H       9.7994720000     9.2055198000    19.7001520000
   65      C      15.7161443000     9.4532460000    19.6551378000
   66      H      15.8120791000     8.4994678000    19.5104492000
   67      H      16.6046296000     9.8276419000    19.7676734000
   68      C       9.2425547000    11.8006900000    19.4622197000
   69      H       8.8995913000    11.1624303000    20.0457969000
   70      C      15.7371172000    13.9977373000     8.9128156000
   71      H      16.2209588000    13.6411817000     8.2022340000
   72      C      15.0565071000    15.1953969000     8.7359741000
   73      H      15.0882829000    15.6210433000     7.9096416000
   74      C      11.5619574000     8.1528774000    19.5377793000
   75      H      12.5043098000     8.3841001000    19.5056263000
   76      H      11.3162087000     7.7750646000    18.6776862000
   77      C      13.1587044000    20.8344929000    12.0573805000
   78      H      12.4076280000    21.4172194000    11.8660700000
   79      H      13.6124249000    21.1860035000    12.8386987000
   80      C      14.0485738000    20.8689550000    10.9657856000
   81      H      13.6168669000    20.3965673000    10.2359122000
   82      H      14.8240276000    20.3434580000    11.2165791000
   83      C       7.6674238000    19.9281068000    19.7290897000
   84      H       6.8486296000    20.0094367000    19.2146415000
   85      H       8.0457399000    20.8148554000    19.8223335000
   86      C      14.9650728000     9.6661315000    20.8608758000
   87      H      14.0426834000     9.4279437000    20.6759960000
   88      H      14.9800813000    10.6185596000    21.0489710000
   89      C       6.5831864000    16.3007567000    17.1086190000
   90      H       7.0632746000    17.1373790000    17.0218059000
   91      H       6.1201459000    16.1594752000    16.2678177000
   92      C      15.6267041000    10.9876648000    10.4400838000
   93      H      14.7328058000    11.1713958000    10.1105154000
   94      H      15.5578977000    10.8648484000    11.3998513000
   95      C      12.2346021000    18.4933919000     8.5301948000
   96      H      12.3991602000    19.0594225000     9.3002595000
   97      H      11.4025321000    18.0184458000     8.6893522000
   98      C      11.3324346000     7.1381324000    20.6132976000
   99      H      10.3858331000     6.9355137000    20.6534889000
  100      H      11.5874296000     7.5230023000    21.4653525000
  101      C      13.3497586000    17.4870061000     8.4273051000
  102      H      14.1617389000    17.9288152000     8.1331050000
  103      H      13.1190623000    16.8089684000     7.7713836000
  104      C      15.3510178000     8.9895681000    22.0601833000
  105      H      15.2307208000     8.0388870000    21.9122794000
  106      H      16.2998699000     9.1391348000    22.1904030000
  107      C      20.7262645000    10.0357673000    11.6361760000
  108      H      21.3901812000    10.0388088000    12.3435423000
  109      H      20.5674991000     9.1104399000    11.3950284000
  110      C      15.4689195000     8.5757414000    10.1908980000
  111      H      14.6112143000     8.5534716000     9.7391481000
  112      H      15.2768533000     8.5751951000    11.1426272000
  113      C      12.0829851000     5.8709485000    20.4187719000
  114      H      11.8791032000     5.2653169000    21.1357841000
  115      H      11.8295242000     5.4733359000    19.5827935000
  116      H      13.0251303000     6.0559573000    20.4139489000
  117      C      12.0693240000    19.3428850000     7.3485715000
  118      H      11.8390644000    18.7693987000     6.6026215000
  119      H      12.9319963000    19.7392755000     7.1492228000
  120      C      19.5528736000    10.5502129000    12.1522319000
  121      H      19.7093214000    11.4844120000    12.3564035000
  122      H      18.8886234000    10.5224830000    11.4448655000
  123      C      14.6614194000     9.3375091000    23.3286197000
  124      H      15.0088477000     8.7948156000    24.0408090000
  125      H      14.8113782000    10.2638327000    23.5295761000
  126      H      13.7189659000     9.1785619000    23.2337683000
  127      C       7.5527856000    15.2880186000    17.2066857000
  128      H       8.1550812000    15.4029118000    16.4559129000
  129      H       7.0928610000    14.4446305000    17.0684278000
  130      C      16.0262801000     9.8303456000     9.9079514000
  131      H      15.9623692000     9.9403089000     8.9465763000
  132      H      16.9727204000     9.7545513000    10.1105154000
  133      C      11.1206074000    20.3871893000     7.3935857000
  134      H      11.1446390000    20.8764371000     6.5688609000
  135      H      10.2432576000    20.0172803000     7.5205901000
  136      H      11.3280117000    20.9770242000     8.1218515000
  137      C      21.3083710000    10.7266657000    10.4561603000
  138      H      22.1006944000    10.2640489000    10.1732138000
  139      H      20.6691154000    10.7306814000     9.7407558000
  140      H      21.5324041000    11.6307558000    10.6908773000
  141      C       7.3328736000    19.3970613000    21.0891623000
  142      H       6.7146047000    19.9920334000    21.5216203000
  143      H       6.9345570000    18.5284529000    21.0055644000
  144      H       8.1344700000    19.3338715000    21.6132564000
  145      C      14.5263882000    22.0774159000    10.4416915000
  146      H      13.7586074000    22.5934452000    10.1523143000
  147      H      14.9380491000    22.5671254000    11.1699573000
  148      C      15.5040661000    22.0465294000     9.3082977000
  149      H      15.7196571000    22.9447873000     9.0478583000
  150      H      16.3037028000    21.5946549000     9.5880289000
  151      H      15.1165550000    21.5805353000     8.5639554000
  152      C       5.5565906000    16.5132914000    18.1182237000
  153      H       5.0851084000    15.6754736000    18.2532664000
  154      H       5.9936888000    16.7367130000    18.9542021000
  155      C       4.5198059000    17.6033945000    17.8095548000
  156      H       3.9077376000    17.6809213000    18.5442511000
  157      H       4.9675882000    18.4417210000    17.6761198000
  158      H       4.0372176000    17.3707472000    17.0137677000
  159      C      16.0664960000     7.3789297000     9.9240279000
  160      H      15.4648420000     6.6645972000    10.1458837000
  161      H      16.2879840000     7.3334613000     8.9915905000
  162      H      16.8669951000     7.2979093000    10.4481221000
 ----------------------------------------------------------------
 Nuclear Repulsion Energy =       13987.39809617 hartrees
 There are      293 alpha and      293 beta electrons
 Requested basis set is 6-31G(d,p)
 There are 566 shells and 1610 basis functions

 Total QAlloc Memory Limit   2000 MB
 Mega-Array Size       188 MB
 MEM_STATIC part       192 MB

 A cutoff of  1.0D-12 yielded  35166 shell pairs
 There are    310040 function pairs
 Smallest overlap matrix eigenvalue = 1.72E-04

 Scale SEOQF with 1.000000e-03/1.000000e-03/1.000000e-03

 Standard Electronic Orientation quadrupole field applied
 Nucleus-field energy     =    -0.0000000199 hartrees
 Guess from superposition of atomic densities
 Warning:  Energy on first SCF cycle will be non-variational
 SAD guess density has 586.000001 electrons
 Long-range K will be added via erf
 Coulomb attenuation parameter = 0.3 bohr**(-1)
 A restricted Kohn-Sham SCF calculation will be
 performed using Pulay DIIS extrapolation
 Exchange:  wPBE + LR-HF      Correlation:  PBE
 Using SG-1 standard quadrature grid
 SCF converges when DIIS error is below 1.0E-08
 using 8 threads for integral computing
 -------------------------------------------------------
 OpenMP Integral computing Module                
 Release: version 1.0, May 2013, Q-Chem Inc. Pittsburgh 
 -------------------------------------------------------
 ---------------------------------------
  Cycle       Energy         DIIS Error
 ---------------------------------------
    1   -3560.1025019745      2.11E-02
    2   -3522.6719974017      1.72E-03
    3   -3523.0474216945      1.43E-03
    4   -3523.5585199501      2.51E-04
    5   -3523.5738610455      1.11E-04
    6   -3523.5773731258      2.60E-05
    7   -3523.5775991523      1.03E-05
    8   -3523.5776467931      4.47E-06
    9   -3523.5776589000      1.84E-06
   10   -3523.5776621390      7.80E-07
   11   -3523.5776627984      4.19E-07
   12   -3523.5776630910      2.22E-07
   13   -3523.5776632488      1.47E-07
   14   -3523.5776633461      9.83E-08
   15   -3523.5776633908      4.76E-08
   16   -3523.5776634019      3.01E-08
   17   -3523.5776634046      1.32E-08
   18   -3523.5776634050      7.11E-09 Convergence criterion met
 ---------------------------------------
 SCF time:  CPU 8029.37 s  wall 1055.47 s
 SCF   energy in the final basis set = -3523.57766340
 Total energy in the final basis set = -3523.57766340

 CIS/TDDFT memory preview:
 --------------------------
	NOV = NOa*NVa + NOb*NVb = 771762
	NRoots = 12, max iter = 30, max vectors = 360
	Size of each subspace vector: 5.89 Mb
	Davidson algorithm may add up to 2 x NOV x NRoots (= 141.3 Mb) per iteration
	Max memory = 4239.4 Mb (worst case scenario)
	Currently available memory = 2000.0 Mb

	In case of problems:
	(a) increase memory (MEM_TOTAL = 4240 can hold 360 subspace vectors), or
	(b) request fewer states (CIS_N_ROOTS = 5 will fit in current MEM_TOTAL), or
	(c) reduce MAX_CIS_SUBSPACE (= 169 will fit in current MEM_TOTAL).
	Reducing MAX_CIS_SUBSPACE may hamper convergence.

 CIS energy converged when residual is below 10e- 6

 Direct TDDFT calculation will be performed
 Exchange:  wPBE + LR-HF      Correlation:  PBE
 Using SG-1 standard quadrature grid
 ---------------------------------------------------
 Iter    Rts Conv    Rts Left    Ttl Dev     Max Dev
 ---------------------------------------------------
   1         0          12      0.002335    0.000302
   2         0          12      0.000649    0.000081
   3         0          12      0.000583    0.000070
   4         0          12      0.000428    0.000047
   5         0          12      0.000331    0.000048
   6         0          12      0.000223    0.000033
   7         0          12      0.000220    0.000066
   8         0          12      0.000161    0.000037
   9         1          11      0.000097    0.000030
  10         2          10      0.000069    0.000018
  11         3           9      0.000068    0.000019
  12         3           9      0.000045    0.000015
  13         4           8      0.000041    0.000014
  14         6           6      0.000032    0.000013
  15         9           3      0.000020    0.000006
  16         9           3      0.000017    0.000006
  17         9           3      0.000012    0.000004
  18        11           1      0.000007    0.000002
  19        11           1      0.000007    0.000002
  20        12           0      0.000006    0.000001    Roots Converged
 ---------------------------------------------------
 
 ---------------------------------------------------
             TDDFT Excitation Energies              
 ---------------------------------------------------

 Excited state   1: excitation energy (eV) =    1.7187
 Total energy for state  1:                 -3523.51450052 au
    Multiplicity: Singlet 
    Trans. Mom.:  2.3849 X  -2.0269 Y  -1.1768 Z
    Strength   :     0.4708045142
    X: D(  293) --> V(    1) amplitude =  0.5562
    X: D(  293) --> V(    2) amplitude =  0.7742

 Excited state   2: excitation energy (eV) =    1.7304
 Total energy for state  2:                 -3523.51407145 au
    Multiplicity: Singlet 
    Trans. Mom.:  0.4955 X   2.0339 Y  -2.7087 Z
    Strength   :     0.4968412451
    X: D(  293) --> V(    1) amplitude =  0.7925
    X: D(  293) --> V(    2) amplitude = -0.5432

 Excited state   3: excitation energy (eV) =    3.4066
 Total energy for state  3:                 -3523.45247470 au
    Multiplicity: Singlet 
    Trans. Mom.: -1.0740 X   0.5879 Y  -0.8576 Z
    Strength   :     0.1864986745
    X: D(  289) --> V(    1) amplitude =  0.3474
    X: D(  290) --> V(    1) amplitude =  0.4186
    X: D(  292) --> V(    2) amplitude =  0.5370
    X: D(  293) --> V(    3) amplitude = -0.4501

 Excited state   4: excitation energy (eV) =    3.4485
 Total energy for state  4:                 -3523.45093303 au
    Multiplicity: Singlet 
    Trans. Mom.: -0.5395 X   2.0681 Y  -0.3624 Z
    Strength   :     0.3970472128
    X: D(  289) --> V(    1) amplitude =  0.6512
    X: D(  290) --> V(    1) amplitude = -0.2706
    X: D(  291) --> V(    2) amplitude = -0.3207
    X: D(  293) --> V(    3) amplitude =  0.2518

 Excited state   5: excitation energy (eV) =    3.5384
 Total energy for state  5:                 -3523.44762817 au
    Multiplicity: Singlet 
    Trans. Mom.:  0.5553 X   0.0005 Y  -0.1902 Z
    Strength   :     0.0298703853
    X: D(  287) --> V(    1) amplitude = -0.4528
    X: D(  290) --> V(    1) amplitude =  0.2744
    X: D(  292) --> V(    1) amplitude =  0.5684
    X: D(  292) --> V(    2) amplitude = -0.4538

 Excited state   6: excitation energy (eV) =    3.6430
 Total energy for state  6:                 -3523.44378694 au
    Multiplicity: Singlet 
    Trans. Mom.: -1.0812 X   0.7989 Y   0.9101 Z
    Strength   :     0.2352157729
    X: D(  287) --> V(    1) amplitude = -0.2540
    X: D(  288) --> V(    1) amplitude = -0.3193
    X: D(  289) --> V(    2) amplitude = -0.3174
    X: D(  291) --> V(    1) amplitude =  0.5972
    X: D(  291) --> V(    2) amplitude = -0.4428

 Excited state   7: excitation energy (eV) =    3.6762
 Total energy for state  7:                 -3523.44256469 au
    Multiplicity: Singlet 
    Trans. Mom.: -0.2736 X  -0.0010 Y   0.0017 Z
    Strength   :     0.0067424860
    X: D(  290) --> V(    1) amplitude =  0.6022
    X: D(  292) --> V(    1) amplitude = -0.5038
    X: D(  292) --> V(    2) amplitude = -0.4003

 Excited state   8: excitation energy (eV) =    3.7257
 Total energy for state  8:                 -3523.44074621 au
    Multiplicity: Singlet 
    Trans. Mom.: -0.0498 X  -0.1567 Y   0.3557 Z
    Strength   :     0.0140129051
    X: D(  286) --> V(    1) amplitude =  0.2668
    X: D(  288) --> V(    2) amplitude =  0.2640
    X: D(  289) --> V(    1) amplitude =  0.3165
    X: D(  291) --> V(    1) amplitude =  0.4634
    X: D(  291) --> V(    2) amplitude =  0.5308

 Excited state   9: excitation energy (eV) =    3.7923
 Total energy for state  9:                 -3523.43829861 au
    Multiplicity: Singlet 
    Trans. Mom.:  0.7244 X   0.0380 Y  -0.7882 Z
    Strength   :     0.1066226309
    X: D(  284) --> V(    1) amplitude = -0.3431
    X: D(  285) --> V(    1) amplitude =  0.4565
    X: D(  288) --> V(    1) amplitude =  0.6036

 Excited state  10: excitation energy (eV) =    3.8961
 Total energy for state 10:                 -3523.43448476 au
    Multiplicity: Singlet 
    Trans. Mom.:  0.1426 X  -0.0104 Y   0.0790 Z
    Strength   :     0.0025465680
    X: D(  287) --> V(    1) amplitude = -0.4091
    X: D(  292) --> V(    1) amplitude = -0.4324
    X: D(  292) --> V(    2) amplitude =  0.2839
    X: D(  293) --> V(    3) amplitude =  0.5050

 Excited state  11: excitation energy (eV) =    3.9176
 Total energy for state 11:                 -3523.43369529 au
    Multiplicity: Singlet 
    Trans. Mom.: -0.1553 X   0.0188 Y   0.3216 Z
    Strength   :     0.0122765422
    X: D(  283) --> V(    1) amplitude = -0.4239
    X: D(  287) --> V(    1) amplitude =  0.3970
    X: D(  290) --> V(    1) amplitude =  0.3314
    X: D(  292) --> V(    1) amplitude =  0.2869
    X: D(  293) --> V(    3) amplitude =  0.4791

 Excited state  12: excitation energy (eV) =    4.0212
 Total energy for state 12:                 -3523.42988562 au
    Multiplicity: Singlet 
    Trans. Mom.:  0.0842 X   0.4706 Y  -0.4947 Z
    Strength   :     0.0466230937
    X: D(  278) --> V(    1) amplitude = -0.2123
    X: D(  284) --> V(    2) amplitude = -0.4326
    X: D(  285) --> V(    2) amplitude =  0.3955
    X: D(  286) --> V(    1) amplitude = -0.3557
    X: D(  289) --> V(    2) amplitude =  0.4331
    X: D(  291) --> V(    2) amplitude = -0.2153
 
 ---------------------------------------------------
  SETman timing summary (seconds)
  CPU time             53746.09s
  System time              0.03s
  Wall time             7137.38s
 
 --------------------------------------------------------------
 
                    Orbital Energies (a.u.)
 --------------------------------------------------------------
 
 Alpha MOs
 -- Occupied --
-18.9580 -18.9571 -18.9544 -18.9486 -18.9484 -18.9419 -18.9260 -18.9231
-14.1976 -14.1968 -14.1578 -14.1578 -14.1565 -14.1549 -14.1433 -14.1428
-10.1409 -10.1393 -10.1393 -10.1381 -10.1262 -10.1255 -10.1226 -10.1217
-10.1213 -10.1208 -10.1206 -10.1204 -10.1201 -10.1182 -10.1086 -10.1052
-10.0837 -10.0821 -10.0807 -10.0795 -10.0748 -10.0728 -10.0723 -10.0722
-10.0717 -10.0711 -10.0602 -10.0597 -10.0586 -10.0579 -10.0496 -10.0490
-10.0482 -10.0475 -10.0444 -10.0441 -10.0434 -10.0420 -10.0419 -10.0409
-10.0251 -10.0244 -10.0230 -10.0227 -10.0202 -10.0170 -10.0160 -10.0128
-10.0127 -10.0116 -10.0107 -10.0089 -10.0085 -10.0084 -10.0072 -10.0056
-10.0009 -10.0008 -10.0007 -10.0002 -10.0001  -9.9968  -9.9915  -9.9913
 -1.1540  -1.1409  -1.1409  -1.1390  -1.1369  -1.1369  -1.1347  -1.1139
 -1.1083  -1.1046  -1.0629  -1.0462  -1.0235  -0.9880  -0.9811  -0.9613
 -0.9605  -0.9567  -0.9500  -0.9434  -0.9411  -0.9404  -0.9386  -0.9343
 -0.9262  -0.9230  -0.9201  -0.9137  -0.8850  -0.8823  -0.8779  -0.8763
 -0.8733  -0.8664  -0.8594  -0.8589  -0.8569  -0.8520  -0.8475  -0.8452
 -0.8364  -0.8228  -0.8182  -0.8170  -0.8039  -0.7881  -0.7856  -0.7833
 -0.7764  -0.7687  -0.7662  -0.7639  -0.7630  -0.7528  -0.7489  -0.7458
 -0.7417  -0.7286  -0.7203  -0.7189  -0.7154  -0.7122  -0.7103  -0.7091
 -0.7072  -0.7060  -0.7003  -0.6958  -0.6936  -0.6923  -0.6890  -0.6839
 -0.6767  -0.6679  -0.6645  -0.6509  -0.6436  -0.6376  -0.6343  -0.6332
 -0.6292  -0.6278  -0.6259  -0.6238  -0.6211  -0.6190  -0.6167  -0.6124
 -0.6105  -0.6103  -0.6054  -0.5963  -0.5905  -0.5858  -0.5840  -0.5811
 -0.5807  -0.5775  -0.5760  -0.5740  -0.5734  -0.5694  -0.5689  -0.5667
 -0.5650  -0.5634  -0.5626  -0.5607  -0.5589  -0.5582  -0.5552  -0.5541
 -0.5525  -0.5520  -0.5508  -0.5463  -0.5441  -0.5420  -0.5385  -0.5363
 -0.5322  -0.5307  -0.5272  -0.5216  -0.5198  -0.5151  -0.5133  -0.5114
 -0.5085  -0.5051  -0.5032  -0.5026  -0.5023  -0.5003  -0.4986  -0.4963
 -0.4959  -0.4932  -0.4916  -0.4907  -0.4897  -0.4886  -0.4866  -0.4864
 -0.4844  -0.4792  -0.4758  -0.4746  -0.4714  -0.4706  -0.4690  -0.4672
 -0.4645  -0.4619  -0.4578  -0.4561  -0.4546  -0.4487  -0.4462  -0.4433
 -0.4421  -0.4405  -0.4378  -0.4355  -0.4341  -0.4329  -0.4298  -0.4297
 -0.4270  -0.4261  -0.4240  -0.4238  -0.4228  -0.4221  -0.4206  -0.4201
 -0.4183  -0.4181  -0.4144  -0.4111  -0.4096  -0.4084  -0.4052  -0.4023
 -0.4004  -0.3984  -0.3969  -0.3946  -0.3915  -0.3895  -0.3865  -0.3780
 -0.3768  -0.3739  -0.3712  -0.3691  -0.3652  -0.3594  -0.3451  -0.3433
 -0.3398  -0.3364  -0.3353  -0.3303  -0.3244  -0.3219  -0.3170  -0.3022
 -0.2989  -0.2856  -0.2799  -0.2759  -0.2054
 -- Virtual --
 -0.0411  -0.0343   0.0402   0.0686   0.0824   0.0857   0.0899   0.1154
  0.1232   0.1255   0.1540   0.1547   0.1620   0.1630   0.1658   0.1767
[...]
  1.3235   1.3280   1.3292   1.3302   1.3318   1.3357   1.3400   1.3428
  1.3464   1.3492   1.3511   1.3529   1.3549   1.3553   1.3564   1.3620
  1.3637   1.3660   1.3726   1.3746   1.3781   1.3854   1.3874   1.3937
  1.3975   1.3983   1.4022   1.4076   1.4106   1.4141   1.4163   1.4182
  1.4191   1.4202   1.4234   1.4266   1.4292   1.4304   1.4344   1.4370
  1.4384   1.4427   1.4450   1.4468   1.4513   1.4582   1.4618   1.4664
  1.4671   1.4706   1.4719   1.4772   1.4795   1.4805   1.4825   1.4875
  1.4925   1.4944   1.4995   1.5026   1.5041   1.5070   1.5104   1.5156
  1.5165   1.5227   1.5247   1.5272   1.5282   1.5323   1.5344   1.5368
  1.5395   1.5471   1.5498   1.5507   1.5530   1.5591   1.5633   1.5662
  1.5688   1.5782   1.5830   1.5887   1.5939   1.5980   1.6013   1.6046
  1.6072   1.6078   1.6108   1.6114   1.6183   1.6231   1.6345   1.6388
  1.6485   1.6500   1.6539   1.6629   1.6664   1.6725   1.6783   1.6790
  1.6889   1.6939   1.6964   1.7024   1.7085   1.7120   1.7150   1.7191
  1.7217   1.7238   1.7253   1.7300   1.7323   1.7360   1.7373   1.7380
  1.7413   1.7432   1.7455   1.7503   1.7564   1.7589   1.7629   1.7654
  1.7665   1.7702   1.7730   1.7786   1.7836   1.7857   1.7885   1.7921
  1.7952   1.7990   1.8000   1.8023   1.8039   1.8066   1.8068   1.8091
  1.8127   1.8150   1.8190   1.8194   1.8200   1.8230   1.8248   1.8257
  1.8312   1.8346   1.8367   1.8405   1.8413   1.8427   1.8467   1.8489
  1.8555   1.8586   1.8621   1.8647   1.8707   1.8765   1.8785   1.8819
  1.8844   1.8849   1.8911   1.8937   1.8976   1.9028   1.9046   1.9099
  1.9173   1.9224   1.9244   1.9296   1.9330   1.9444   1.9469   1.9493
  1.9518   1.9539   1.9598   1.9610   1.9650   1.9699   1.9784   1.9800
  1.9826   1.9851   1.9886   1.9916   1.9934   1.9957   1.9981   1.9985
  2.0014   2.0042   2.0061   2.0079   2.0125   2.0173   2.0211   2.0228
  2.0246   2.0256   2.0308   2.0339   2.0363   2.0394   2.0403   2.0414
  2.0454   2.0479   2.0486   2.0567   2.0600   2.0619   2.0667   2.0679
  2.0706   2.0720   2.0775   2.0793   2.0820   2.0830   2.0865   2.0881
  2.0904   2.0911   2.0943   2.0950   2.0978   2.0991   2.1012   2.1090
  2.1100   2.1137   2.1177   2.1209   2.1284   2.1310   2.1359   2.1416
  2.1423   2.1455   2.1519   2.1537   2.1573   2.1599   2.1634   2.1661
  2.1692   2.1740   2.1800   2.1818   2.1842   2.1878   2.1937   2.1955
  2.1976   2.1985   2.2004   2.2008   2.2015   2.2026   2.2049   2.2066
  2.2071   2.2074   2.2080   2.2105   2.2112   2.2154   2.2177   2.2266
  2.2316   2.2427   2.2490   2.2578   2.2651   2.2720   2.2753   2.2773
  2.2830   2.2951   2.3017   2.3054   2.3066   2.3150   2.3162   2.3182
  2.3196   2.3219   2.3222   2.3248   2.3264   2.3291   2.3312   2.3317
  2.3334   2.3345   2.3369   2.3387   2.3397   2.3425   2.3447   2.3484
  2.3493   2.3531   2.3544   2.3553   2.3561   2.3598   2.3615   2.3638
  2.3667   2.3673   2.3680   2.3702   2.3711   2.3721   2.3732   2.3744
  2.3746   2.3749   2.3762   2.3777   2.3782   2.3806   2.3829   2.3845
  2.3894   2.3908   2.3925   2.3938   2.3974   2.4014   2.4021   2.4037
  2.4071   2.4083   2.4091   2.4128   2.4137   2.4161   2.4187   2.4204
  2.4220   2.4272   2.4288   2.4308   2.4342   2.4345   2.4387   2.4395
  2.4407   2.4441   2.4462   2.4469   2.4482   2.4488   2.4506   2.4556
  2.4571   2.4605   2.4617   2.4644   2.4648   2.4688   2.4744   2.4772
  2.4782   2.4841   2.4848   2.4860   2.4874   2.4901   2.4945   2.4945
  2.4968   2.4972   2.4986   2.4992   2.5036   2.5060   2.5074   2.5086
  2.5098   2.5133   2.5186   2.5212   2.5232   2.5256   2.5267   2.5303
  2.5310   2.5315   2.5324   2.5346   2.5363   2.5392   2.5421   2.5437
  2.5450   2.5462   2.5487   2.5501   2.5549   2.5579   2.5613   2.5660
  2.5685   2.5802   2.5812   2.5816   2.5874   2.5890   2.5935   2.5942
  2.5998   2.6046   2.6100   2.6120   2.6154   2.6163   2.6209   2.6274
  2.6335   2.6343   2.6354   2.6389   2.6408   2.6477   2.6503   2.6524
  2.6557   2.6612   2.6625   2.6634   2.6654   2.6684   2.6707   2.6761
  2.6775   2.6790   2.6833   2.6839   2.6883   2.6896   2.6915   2.6935
  2.6969   2.6982   2.7025   2.7050   2.7100   2.7119   2.7188   2.7223
  2.7271   2.7284   2.7296   2.7306   2.7315   2.7355   2.7406   2.7481
  2.7505   2.7528   2.7590   2.7606   2.7674   2.7698   2.7727   2.7759
  2.7793   2.7807   2.7837   2.7892   2.7911   2.7956   2.8000   2.8051
  2.8062   2.8088   2.8160   2.8183   2.8198   2.8214   2.8251   2.8270
  2.8313   2.8364   2.8480   2.8494   2.8565   2.8594   2.8683   2.8688
  2.8729   2.8758   2.8807   2.8849   2.8868   2.8902   2.8940   2.8968
  2.8972   2.8998   2.9026   2.9053   2.9078   2.9124   2.9171   2.9199
  2.9255   2.9271   2.9330   2.9384   2.9437   2.9448   2.9496   2.9512
  2.9525   2.9558   2.9574   2.9581   2.9591   2.9630   2.9653   2.9657
  2.9707   2.9732   2.9796   2.9852   2.9883   2.9897   2.9988   3.0035
  3.0061   3.0131   3.0233   3.0271   3.0328   3.0388   3.0425   3.0449
  3.0527   3.0536   3.0590   3.0632   3.0659   3.0687   3.0700   3.0729
  3.0777   3.0877   3.0941   3.1001   3.1018   3.1069   3.1071   3.1123
  3.1218   3.1288   3.1365   3.1390   3.1437   3.1466   3.1552   3.1572
  3.1679   3.1733   3.1765   3.1811   3.1828   3.1892   3.1925   3.1934
  3.1978   3.2001   3.2017   3.2029   3.2038   3.2075   3.2092   3.2131
  3.2168   3.2191   3.2334   3.2345   3.2355   3.2419   3.2474   3.2508
  3.2627   3.2691   3.2706   3.2736   3.2801   3.2845   3.2872   3.2886
  3.2896   3.2953   3.2963   3.2984   3.3001   3.3031   3.3044   3.3085
  3.3148   3.3164   3.3203   3.3258   3.3283   3.3317   3.3361   3.3383
  3.3398   3.3448   3.3513   3.3581   3.3653   3.3705   3.3750   3.3961
  3.3984   3.4058   3.4080   3.4154   3.4202   3.4290   3.4418   3.4501
  3.4593   3.4614   3.4755   3.5393   3.5778   3.6416   3.6568   3.6682
  3.6695   3.6834   3.6838   3.6853   3.6877   3.6929   3.7016   3.7026
  3.7041   3.7119   3.7250   3.7320   3.7335   3.7375   3.7396   3.7420
  3.7458   3.7495   3.7514   3.7597   3.7623   3.7637   3.7724   3.7725
  3.7737   3.7846   3.7847   3.7945   3.7957   3.7966   3.7997   3.8017
  3.8019   3.8082   3.8095   3.8214   3.8225   3.8251   3.8298   3.8318
  3.8320   3.8324   3.8330   3.8342   3.8348   3.8356   3.8368   3.8377
  3.8460   3.8488   3.8684   3.8717   3.8752   3.8763   3.8963   3.9311
  3.9347   3.9361   3.9408   3.9463   3.9475   3.9580   3.9602   3.9689
  3.9703   3.9760   3.9799   3.9810   3.9898   3.9932   3.9959   4.0282
  4.0370   4.0472   4.0593   4.0623   4.0691   4.0794   4.1013   4.1043
  4.1124   4.1221   4.1247   4.1321   4.1386   4.1833   4.1871   4.1903
  4.1998   4.2108   4.2154   4.2177   4.2200   4.2223   4.2288   4.2300
  4.2440   4.2792   4.2856   4.2983   4.3142   4.3304   4.3448   4.3633
  4.3674   4.3745   4.3864   4.4038   4.4115   4.4145   4.4183   4.4251
  4.4343   4.4394   4.4556   4.4582   4.4722   4.5257   4.5290   4.5378
  4.5468   4.5498   4.5514   4.5547   4.5625   4.5702   4.5772   4.5803
  4.5943   4.6027   4.6036   4.6255   4.6404   4.6425   4.6658   4.6728
  4.6765   4.6830   4.6865   4.6886   4.6907   4.7025   4.7036   4.7098
  4.7193   4.7375   4.7430   4.7556   4.7591   4.7828   4.7912   4.8285
  4.8410   4.8527   4.8565   4.8635   4.8712   4.8729   4.9236   4.9536
  4.9658   5.0727   5.0842   5.0914   5.1012
 --------------------------------------------------------------
 
          Ground-State Mulliken Net Atomic Charges

     Atom                 Charge (a.u.)
  ----------------------------------------
      1 N                    -0.624197
      2 O                    -0.507772
      3 O                    -0.508591
      4 N                    -0.520294
      5 H                     0.247946
      6 N                    -0.490416
      7 O                    -0.503336
      8 N                    -0.525291
      9 H                     0.250081
     10 N                    -0.473762
     11 N                    -0.620289
     12 O                    -0.534475
     13 O                    -0.490226
     14 O                    -0.501099
     15 O                    -0.494177
     16 O                    -0.491038
     17 N                    -0.470291
     18 N                    -0.492004
     19 C                     0.421379
     20 C                     0.479329
     21 C                    -0.027657
     22 C                    -0.040309
     23 C                     0.426910
     24 C                     0.492195
     25 C                    -0.031396
     26 C                     0.032846
     27 C                    -0.046864
     28 C                     0.420114
     29 C                     0.492009
     30 C                     0.421724
     31 C                     0.297808
     32 C                     0.287848
     33 C                    -0.017780
     34 C                     0.284997
     35 C                     0.025255
     36 H                     0.121624
     37 H                     0.119580
     38 C                     0.297993
     39 C                     0.497202
     40 C                    -0.016508
     41 C                     0.033508
     42 C                     0.279403
     43 C                    -0.103883
     44 H                     0.076876
     45 C                    -0.115200
     46 H                     0.077742
     47 C                     0.219115
     48 C                    -0.107609
     49 H                     0.077729
     50 C                    -0.115709
     51 H                     0.077648
     52 C                     0.273748
     53 C                    -0.258699
     54 H                     0.156776
     55 H                     0.135339
     56 C                     0.225584
     57 C                     0.022951
     58 H                     0.119026
     59 H                     0.118538
     60 C                    -0.084274
     61 H                     0.077483
     62 C                     0.028645
     63 H                     0.116551
     64 H                     0.117552
     65 C                     0.040108
     66 H                     0.110791
     67 H                     0.117202
     68 C                    -0.114620
     69 H                     0.077589
     70 C                    -0.084312
     71 H                     0.079078
     72 C                    -0.115469
     73 H                     0.078859
     74 C                    -0.255055
     75 H                     0.146675
     76 H                     0.133972
     77 C                     0.048364
     78 H                     0.105000
     79 H                     0.115094
     80 C                    -0.256653
     81 H                     0.134446
     82 H                     0.136529
     83 C                    -0.263783
     84 H                     0.122091
     85 H                     0.119909
     86 C                    -0.259217
     87 H                     0.141290
     88 H                     0.135363
     89 C                    -0.260994
     90 H                     0.127766
     91 H                     0.121970
     92 C                     0.070462
     93 H                     0.093782
     94 H                     0.125141
     95 C                    -0.262241
     96 H                     0.147409
     97 H                     0.129500
     98 C                    -0.263297
     99 H                     0.123014
    100 H                     0.120980
    101 C                     0.043483
    102 H                     0.104195
    103 H                     0.107465
    104 C                    -0.256144
    105 H                     0.119169
    106 H                     0.119073
    107 C                    -0.249176
    108 H                     0.113175
    109 H                     0.113518
    110 C                    -0.237058
    111 H                     0.114850
    112 H                     0.116049
    113 C                    -0.356862
    114 H                     0.123833
    115 H                     0.129200
    116 H                     0.123312
    117 C                    -0.252872
    118 H                     0.119037
    119 H                     0.115031
    120 C                    -0.251508
    121 H                     0.136966
    122 H                     0.151378
    123 C                    -0.355936
    124 H                     0.127274
    125 H                     0.130986
    126 H                     0.125901
    127 C                     0.070953
    128 H                     0.105059
    129 H                     0.074722
    130 C                    -0.249961
    131 H                     0.107788
    132 H                     0.117716
    133 C                    -0.344965
    134 H                     0.122611
    135 H                     0.124954
    136 H                     0.117556
    137 C                    -0.355348
    138 H                     0.122478
    139 H                     0.131689
    140 H                     0.128651
    141 C                    -0.361233
    142 H                     0.122059
    143 H                     0.134856
    144 H                     0.129337
    145 C                    -0.251702
    146 H                     0.115409
    147 H                     0.117817
    148 C                    -0.356999
    149 H                     0.126939
    150 H                     0.131213
    151 H                     0.125714
    152 C                    -0.251213
    153 H                     0.112650
    154 H                     0.130556
    155 C                    -0.367870
    156 H                     0.123504
    157 H                     0.122347
    158 H                     0.125304
    159 C                    -0.338635
    160 H                     0.124782
    161 H                     0.117397
    162 H                     0.114876
  ----------------------------------------
  Sum of atomic charges =     0.000000

 -----------------------------------------------------------------
                    Cartesian Multipole Moments
 -----------------------------------------------------------------
    Charge (ESU x 10^10)
                 0.0000
    Dipole Moment (Debye)
         X      -0.1531      Y       0.7235      Z      -1.0459
       Tot       1.2809
    Quadrupole Moments (Debye-Ang)
        XX    -440.4722     XY       2.2786     YY    -362.0566
        XZ     -44.8964     YZ     -20.9851     ZZ    -483.8253
    Octopole Moments (Debye-Ang^2)
       XXX  -48056.7200    XXY   -7096.2454    XYY  -14030.6210
       YYY  -16745.4621    XXZ  -16287.7155    XYZ   -1568.9233
       YYZ  -13242.2700    XZZ  -18072.4437    YZZ   -8292.4143
       ZZZ  -44933.3888
    Hexadecapole Moments (Debye-Ang^3)
      XXXX ************   XXXY -749159.3647   XXYY -646919.0916
      XYYY -623744.0154   YYYY -551457.3156   XXXZ ************
      XXYZ -295495.1808   XYYZ -507724.9341   YYYZ -577876.5797
      XXZZ ************   XYZZ -328442.4920   YYZZ -584014.8817
      XZZZ ************   YZZZ -727307.5311   ZZZZ ************
 -----------------------------------------------------------------
 Total job time:  8187.74s(wall), 61657.75s(cpu) 
 Tue Feb 11 02:09:24 2025

        *************************************************************
        *                                                           *
        *  Thank you very much for using Q-Chem.  Have a nice day.  *
        *                                                           *
        *************************************************************


Copy Fragment Subsystem from /scratch/sanghita/qchem125926/Frg2s1/
Copy MO Coefficient from /scratch/sanghita/qchem125926/Frg2s1/
Alpha electrons: 293
 Beta electrons: 293
Copy Set Amplitude from /scratch/sanghita/qchem125926/Frg2s1/

Total alpha electrons: 586
Total  beta electrons: 586

-----------------------------------------------------------------
 Done with SCF on isolated fragments
-----------------------------------------------------------------

-----------------------------------------------------------------
 Start with Direct Coulomb-Exchange Integration 
-----------------------------------------------------------------

 RPA/TDDFT Excited States --
 Donor    : State 1 to 6
 Acceptor : State 1 to 6
                                              Dipole-Dipole
              Coulomb (eV)    Exchange (eV)  Interaction (eV)
           ---------------  ---------------  ---------------
 ( 1, 1):   -0.00101610682                0   -0.00110035532
 ( 1, 2):  -0.000413867142                0  -0.000637937082
 ( 1, 3):  -3.36430673E-05                0  -0.000263583461
 ( 1, 4):    0.00042154104                0   0.000448953109
 ( 1, 5):  -0.000135993392                0  -7.01543885E-05
 ( 1, 6):   0.000524953408                0   0.000640423411
 ( 2, 1):  -0.000413885239                0  -0.000637957551
 ( 2, 2):  -0.000893751781                0   -0.00106087322
 ( 2, 3):   0.000217508847                0   0.000296979516
 ( 2, 4):   -0.00037842333                0  -0.000399137411
 ( 2, 5):  -0.000114223293                0  -0.000290353928
 ( 2, 6):    0.00021589821                0   0.000351510436
 ( 3, 1):  -3.36402918E-05                0   -0.00026358005
 ( 3, 2):   0.000217509172                0   0.000296982285
 ( 3, 3):   0.000400616886                0    0.00048817633
 ( 3, 4):  -8.96020762E-05                0   5.06458416E-05
 ( 3, 5):  -5.48463549E-05                0  -0.000129155326
 ( 3, 6):  -4.03226404E-05                0   4.01121457E-05
 ( 4, 1):   0.000421537735                0   0.000448949533
 ( 4, 2):  -0.000378427242                0  -0.000399141228
 ( 4, 3):  -8.96018904E-05                0   5.06460569E-05
 ( 4, 4):  -0.000428867236                0  -0.000532483574
 ( 4, 5):   5.22249702E-05                0  -5.13381025E-05
 ( 4, 6):  -0.000182451135                0  -0.000207513178
 ( 5, 1):  -0.000135993959                0   -7.0156814E-05
 ( 5, 2):  -0.000114222406                0  -0.000290353592
 ( 5, 3):  -5.48459096E-05                0  -0.000129154469
 ( 5, 4):   5.22240125E-05                0  -5.13390986E-05
 ( 5, 5):  -1.63215748E-05                0  -5.17907163E-06
 ( 5, 6):   8.08237594E-05                0   7.47699258E-05
 ( 6, 1):   0.000524955794                0   0.000640426923
 ( 6, 2):   0.000215892617                0   0.000351503739
 ( 6, 3):  -4.03227644E-05                0   4.01121896E-05
 ( 6, 4):  -0.000182451308                0  -0.000207513359
 ( 6, 5):   8.08241689E-05                0   7.47702131E-05
 ( 6, 6):  -0.000264608298                0  -0.000354443462
--------------------------------------------------------------
 DC time:  CPU 13087.07 s  wall 1684.83 s


 CIS/TDDFT memory preview:
 --------------------------
	NOV = NOa*NVa + NOb*NVb = 3087048
	NRoots = 12, max iter = 30, max vectors = 360
	Size of each subspace vector: 23.55 Mb
	Davidson algorithm may add up to 2 x NOV x NRoots (= 565.3 Mb) per iteration
	Max memory = 16957.7 Mb (worst case scenario)
	Currently available memory = 2000.0 Mb

	In case of problems:
	(a) increase memory (MEM_TOTAL = 16958 can hold 360 subspace vectors), or
	(b) request fewer states (CIS_N_ROOTS = 1 will fit in current MEM_TOTAL), or
	(c) reduce MAX_CIS_SUBSPACE (= 42 will fit in current MEM_TOTAL).
	Reducing MAX_CIS_SUBSPACE may hamper convergence.

 CIS energy converged when residual is below 10e- 6
  Skipping CIS/RPA calculation, including relax
  Going directly to Wavefunction Analysis
 No wavefunction analysis requested
 Total job time:  18098.50s(wall), 13124.77s(cpu) 
 Tue Feb 11 02:37:38 2025

        *************************************************************
        *                                                           *
        *  Thank you very much for using Q-Chem.  Have a nice day.  *
        *                                                           *
        *************************************************************


