                  Welcome to Q-Chem
     A Quantum Leap Into The Future Of Chemistry


 Q-Chem 6.1 (devel), Q-Chem, Inc., Pleasanton, CA (2022)

 E. Epifanovsky,  A. T. B. Gilbert,  Xintian Feng,  Joonho Lee,  Yuezhi Mao,  
 N. Mardirossian,  P. Pokhilko,  A. White,  M. Wormit,  M. P. Coons,  
 A. L. Dempwolff,  Zhengting Gan,  D. Hait,  P. R. Horn,  L. D. Jacobson,  
 I. Kaliman,  J. Kussmann,  A. W. Lange,  Ka Un Lao,  D. S. Levine,  Jie Liu,  
 S. C. McKenzie,  A. F. Morrison,  K. Nanda,  F. Plasser,  D. R. Rehn,  
 M. L. Vidal,  Zhi-Qiang You,  Ying Zhu,  B. Alam,  B. Albrecht,  
 A. Aldossary,  E. Alguire,  J. H. Andersen,  V. Athavale,  D. Barton,  
 K. Begam,  A. Behn,  N. Bellonzi,  Y. A. Bernard,  E. J. Berquist,  
 H. Burton,  A. Carreras,  K. Carter-Fenk,  Mathew Chow,  Romit Chakraborty,  
 Chandrima Chakravarty,  Junhan Chen,  A. D. Chien,  K. D. Closser,  
 V. Cofer-Shabica,  L. Cunha,  S. Dasgupta,  Jia Deng,  M. de Wergifosse,  
 M. Diedenhofen,  Hainam Do,  S. Ehlert,  Po-Tung Fang,  S. Fatehi,  
 Qingguo Feng,  T. Friedhoff,  Thomas Froitzheim,  B. Ganoe,  J. Gayvert,  
 Qinghui Ge,  G. Gidofalvi,  M. Goldey,  Montgomery Gray,  J. Gomes,  
 C. Gonzalez-Espinoza,  S. Gulania,  A. Gunina,  J. A. Gyamfi,  
 M. W. D. Hanson-Heine,  P. H. P. Harbach,  A. W. Hauser,  M. F. Herbst,  
 M. Hernandez Vera,  M. Hodecker,  Z. C. Holden,  S. Houck,  Xunkun Huang,  
 Kerwin Hui,  B. C. Huynh,  K. Ikeda,  M. Ivanov,  Hyunjun Ji,  Zuxin Jin,  
 Hanjie Jiang,  Subrata Jana,  B. Kaduk,  S. Kaehler,  R. Kang,  
 K. Khistyaev,  Jaehoon Kim,  Yongbin Kim,  P. Klunzinger,  Z. Koczor-Benda,  
 Joong Hoon Koh,  D. Kosenkov,  Saikiran Kotaru,  L. Koulias,  T. Kowalczyk,  
 C. M. Krauter,  K. Kue,  A. Kunitsa,  T. Kus,  A. Landau,  K. V. Lawler,  
 D. Lefrancois,  S. Lehtola,  Rain Li,  Shaozhi Li,  Yi-Pei Li,  
 Jiashu Liang,  M. Liebenthal,  Hung-Hsuan Lin,  You-Sheng Lin,  Fenglai Liu,  
 Kuan-Yu Liu,  M. Loipersberger,  A. Luenser,  C. Malbon,  A. Manjanath,  
 P. Manohar,  E. Mansoor,  S. F. Manzer,  Shan-Ping Mao,  A. V. Marenich,  
 T. Markovich,  S. Mason,  F. Matz,  S. A. Maurer,  P. F. McLaughlin,  
 M. F. S. J. Menger,  J.-M. Mewes,  S. A. Mewes,  P. Morgante,  
 Mohammad Mostafanejad,  J. W. Mullinax,  K. J. Oosterbaan,  G. Paran,  
 V. Parravicini,  Alexander C. Paul,  Suranjan K. Paul,  F. Pavosevic,  
 Zheng Pei,  S. Prager,  E. I. Proynov,  E. Ramos,  B. Rana,  A. E. Rask,  
 A. Rettig,  R. M. Richard,  F. Rob,  E. Rossomme,  T. Scheele,  M. Scheurer,  
 M. Schneider,  P. E. Schneider,  N. Sergueev,  S. M. Sharada,  
 Hengyuan Shen,  W. Skomorowski,  D. W. Small,  C. J. Stein,  Yingli Su,  
 Yu-Chuan Su,  E. J. Sundstrom,  Zhen Tao,  J. Thirman,  Hung-Yi Tsai,  
 T. Tsuchimochi,  N. M. Tubman,  C. Utku,  S. P. Veccham,  O. Vydrov,  
 J. Wenzel,  Jonathan Wong,  J. Witte,  A. Yamada,  Chou-Hsun Yang,  Kun Yao,  
 S. Yeganeh,  S. R. Yost,  A. Zech,  F. Zeller,  Igor Ying Zhang,  
 Xing Zhang,  Yu Zhang,  D. Zuev,  A. Aspuru-Guzik,  A. T. Bell,  
 N. A. Besley,  K. B. Bravaya,  B. R. Brooks,  D. Casanova,  Jeng-Da Chai,  
 Hsing-Ta Chen,  S. Coriani,  C. J. Cramer,  A. E. DePrince, III,  
 R. A. DiStasio Jr.,  A. Dreuw,  B. D. Dunietz,  T. R. Furlani,  
 W. A. Goddard III,  S. Grimme,  S. Hammes-Schiffer,  T. Head-Gordon,  
 W. J. Hehre,  Chao-Ping Hsu,  T.-C. Jagau,  Yousung Jung,  A. Klamt,  
 Jing Kong,  D. S. Lambrecht,  Xiangyuan Li,  WanZhen Liang,  N. J. Mayhall,  
 C. W. McCurdy,  J. B. Neaton,  T. Neudecker,  C. Ochsenfeld,  
 J. A. Parkhill,  R. Peverati,  V. A. Rassolov,  Haisheng Ren,  Yihan Shao,  
 L. V. Slipchenko,  R. P. Steele,  J. E. Subotnik,  A. J. W. Thom,  
 A. Tkatchenko,  D. G. Truhlar,  T. Van Voorhis,  Fan Wang,  
 T. A. Wesolowski,  K. B. Whaley,  H. L. Woodcock III,  P. M. Zimmerman,  
 S. Faraji,  P. M. W. Gill,  M. Head-Gordon,  J. M. Herbert,  A. I. Krylov

 Contributors to earlier versions of Q-Chem not listed above: 
 R. D. Adamson,  B. Austin,  R. Baer,  J. Baker,  G. J. O. Beran,  
 K. Brandhorst,  S. T. Brown,  E. F. C. Byrd,  Arup K. Chakraborty,  
 G. K. L. Chan,  Chun-Min Chang,  Yunqing Chen,  C.-L. Cheng,  
 Siu Hung Chien,  D. M. Chipman,  D. L. Crittenden,  H. Dachsel,  
 R. J. Doerksen,  A. D. Dutoi,  R. G. Edgar,  J. Fosso-Tande,  
 L. Fusti-Molnar,  D. Ghosh,  A. Ghysels,  A. Golubeva-Zadorozhnaya,  
 J. Gonthier,  M. S. Gordon,  S. R. Gwaltney,  G. Hawkins,  J. E. Herr,  
 A. Heyden,  S. Hirata,  E. G. Hohenstein,  G. Kedziora,  F. J. Keil,  
 C. Kelley,  Jihan Kim,  R. A. King,  R. Z. Khaliullin,  P. P. Korambath,  
 W. Kurlancheek,  A. Laurent,  A. M. Lee,  M. S. Lee,  S. V. Levchenko,  
 Ching Yeh Lin,  D. Liotard,  E. Livshits,  R. C. Lochan,  I. Lotan,  
 L. A. Martinez-Martinez,  P. E. Maslen,  N. Nair,  D. P. O'Neill,  
 D. Neuhauser,  E. Neuscamman,  C. M. Oana,  R. Olivares-Amaya,  R. Olson,  
 T. M. Perrine,  B. Peters,  P. A. Pieniazek,  A. Prociuk,  Y. M. Rhee,  
 J. Ritchie,  M. A. Rohrdanz,  E. Rosta,  N. J. Russ,  H. F. Schaefer III,  
 M. W. Schmidt,  N. E. Schultz,  S. Sharma,  N. Shenvi,  C. D. Sherrill,  
 A. C. Simmonett,  A. Sodt,  T. Stein,  D. Stuck,  K. S. Thanthiriwatte,  
 V. Vanovschi,  L. Vogt,  Tao Wang,  A. Warshel,  M. A. Watson,  
 C. F. Williams,  Q. Wu,  X. Xu,  Jun Yang,  W. Zhang,  Yan Zhao

   Please cite Q-Chem as follows:
  "Software for the frontiers of quantum chemistry:
   An overview of developments in the Q-Chem 5 package"
   J. Chem. Phys. 155, 084801 (2021)
   https://doi.org/10.1063/5.0055522 (open access)

 Q-Chem 6.1.0 for Intel X86 EM64T Linux

 Parts of Q-Chem use Armadillo 9.900.5 (Nocturnal Misbehaviour).
 http://arma.sourceforge.net/

 Q-Chem begins on Tue Feb 11 02:27:07 2025  

 Host: n089.cluster
0

     Scratch files written to /scratch/sanghita/qchem145414//
 Processing $rem in /home/chance/software/ccats2023/config/preferences:
 Processing $rem in /home/sanghita/.qchemrc:

 Checking the input file for inconsistencies... 	...done.

--------------------------------------------------------------
User input:
--------------------------------------------------------------
$molecule
0 1
--
0 1
N   14.0720775   14.4772325   13.2163359
O    9.7109512   18.5476720   16.9529985
O   12.6699426   19.5523330   12.3564035
N   14.1978809   12.5091885   15.1593425
H   13.6499394   13.1366178   14.9463288
N   10.6968001   15.7849540   16.5189328
O   17.7504349   10.6360029   13.6758024
N   12.1814359   15.9435682   14.6317116
H   12.5053443   15.1481361   14.6714205
N   13.1221249   11.7865154   17.1941461
N   12.1227943   13.8442504   16.4446593
O   16.4108133   12.1313491   10.2097075
O   15.1190570   10.0272714   18.5288177
O   11.1290189   10.3657151   18.8545277
O    8.2990082   15.1419389   18.2749697
O   13.5562040   16.9047300    9.6341685
N   13.1459147   16.6060343   12.5358173
N   15.4965237   12.5285272   13.1505830
C   11.0143706   14.5319951   16.8417490
C   14.1170956   11.7921351   16.3321237
C   15.9650751   11.1214508   15.1360316
C   11.0953689   17.8358760   15.1810458
C   14.8723675   13.5645586   12.5930497
C   12.4922182   16.8341150   13.6409164
C   11.8319416   18.0811204   14.0187143
C   10.2214631   13.7490278   17.7741864
C   15.2977586   10.9475056   16.3546309
C   13.7878495   15.4471905   12.3009395
C   11.3070969   16.4441565   15.5508055
C   12.1288558   12.6755315   17.1472027
C   15.7878894   10.0968648   17.3722738
C   11.8793668   19.3617450   13.4496060
C   10.9226761   12.5554385   17.9638892
C   17.1459011   10.4155106   14.8643386
C    8.9442376   19.5584112   17.6118137
H    9.4508233   20.3839259   17.6632585
H    8.1255381   19.7310394   17.1214803
C   10.3528342   18.8531819   15.7951684
C   15.2363235   12.1179618   14.3756128
C   14.3593810   15.1246861   11.0045300
C   15.0539669   13.9171689   11.1762271
C   10.4278783   11.5483961   18.7950447
C   11.1261322   20.3329703   14.0524750
H   11.1215417   21.1866756   13.6859306
C   16.9661325    9.4174721   17.0587819
H   17.3312499    8.8448704   17.6938039
C   15.7139749   13.3261514   10.1105154
C   17.5980982    9.5544504   15.8707280
H   18.3676159    9.0557279   15.7163935
C   10.3763483   20.0885228   15.1826535
H    9.8702941   20.7785556   15.5427672
C   14.3384859   15.7631269    9.7584399
C    8.6321772   19.0697299   18.9670633
H    8.2624313   18.1755258   18.8979343
H    9.4568811   19.0078014   19.4734733
C    9.0115299   13.9744433   18.4301079
C   18.9503624    9.9285128   13.3515393
H   19.5718897    9.9701792   14.0942739
H   18.7477221    8.9961052   13.1746977
C    8.5615626   12.9870674   19.2757322
H    7.7659346   13.1239969   19.7387356
C   10.7456831    9.4004821   19.7917881
H   10.9055579    9.7274130   20.6904649
H    9.7994720    9.2055198   19.7001520
C   15.7161443    9.4532460   19.6551378
H   15.8120791    8.4994678   19.5104492
H   16.6046296    9.8276419   19.7676734
C    9.2425547   11.8006900   19.4622197
H    8.8995913   11.1624303   20.0457969
C   15.7371172   13.9977373    8.9128156
H   16.2209588   13.6411817    8.2022340
C   15.0565071   15.1953969    8.7359741
H   15.0882829   15.6210433    7.9096416
C   11.5619574    8.1528774   19.5377793
H   12.5043098    8.3841001   19.5056263
H   11.3162087    7.7750646   18.6776862
C   13.1587044   20.8344929   12.0573805
H   12.4076280   21.4172194   11.8660700
H   13.6124249   21.1860035   12.8386987
C   14.0485738   20.8689550   10.9657856
H   13.6168669   20.3965673   10.2359122
H   14.8240276   20.3434580   11.2165791
C    7.6674238   19.9281068   19.7290897
H    6.8486296   20.0094367   19.2146415
H    8.0457399   20.8148554   19.8223335
C   14.9650728    9.6661315   20.8608758
H   14.0426834    9.4279437   20.6759960
H   14.9800813   10.6185596   21.0489710
C    6.5831864   16.3007567   17.1086190
H    7.0632746   17.1373790   17.0218059
H    6.1201459   16.1594752   16.2678177
C   15.6267041   10.9876648   10.4400838
H   14.7328058   11.1713958   10.1105154
H   15.5578977   10.8648484   11.3998513
C   12.2346021   18.4933919    8.5301948
H   12.3991602   19.0594225    9.3002595
H   11.4025321   18.0184458    8.6893522
C   11.3324346    7.1381324   20.6132976
H   10.3858331    6.9355137   20.6534889
H   11.5874296    7.5230023   21.4653525
C   13.3497586   17.4870061    8.4273051
H   14.1617389   17.9288152    8.1331050
H   13.1190623   16.8089684    7.7713836
C   15.3510178    8.9895681   22.0601833
H   15.2307208    8.0388870   21.9122794
H   16.2998699    9.1391348   22.1904030
C   20.7262645   10.0357673   11.6361760
H   21.3901812   10.0388088   12.3435423
H   20.5674991    9.1104399   11.3950284
C   15.4689195    8.5757414   10.1908980
H   14.6112143    8.5534716    9.7391481
H   15.2768533    8.5751951   11.1426272
C   12.0829851    5.8709485   20.4187719
H   11.8791032    5.2653169   21.1357841
H   11.8295242    5.4733359   19.5827935
H   13.0251303    6.0559573   20.4139489
C   12.0693240   19.3428850    7.3485715
H   11.8390644   18.7693987    6.6026215
H   12.9319963   19.7392755    7.1492228
C   19.5528736   10.5502129   12.1522319
H   19.7093214   11.4844120   12.3564035
H   18.8886234   10.5224830   11.4448655
C   14.6614194    9.3375091   23.3286197
H   15.0088477    8.7948156   24.0408090
H   14.8113782   10.2638327   23.5295761
H   13.7189659    9.1785619   23.2337683
C    7.5527856   15.2880186   17.2066857
H    8.1550812   15.4029118   16.4559129
H    7.0928610   14.4446305   17.0684278
C   16.0262801    9.8303456    9.9079514
H   15.9623692    9.9403089    8.9465763
H   16.9727204    9.7545513   10.1105154
C   11.1206074   20.3871893    7.3935857
H   11.1446390   20.8764371    6.5688609
H   10.2432576   20.0172803    7.5205901
H   11.3280117   20.9770242    8.1218515
C   21.3083710   10.7266657   10.4561603
H   22.1006944   10.2640489   10.1732138
H   20.6691154   10.7306814    9.7407558
H   21.5324041   11.6307558   10.6908773
C    7.3328736   19.3970613   21.0891623
H    6.7146047   19.9920334   21.5216203
H    6.9345570   18.5284529   21.0055644
H    8.1344700   19.3338715   21.6132564
C   14.5263882   22.0774159   10.4416915
H   13.7586074   22.5934452   10.1523143
H   14.9380491   22.5671254   11.1699573
C   15.5040661   22.0465294    9.3082977
H   15.7196571   22.9447873    9.0478583
H   16.3037028   21.5946549    9.5880289
H   15.1165550   21.5805353    8.5639554
C    5.5565906   16.5132914   18.1182237
H    5.0851084   15.6754736   18.2532664
H    5.9936888   16.7367130   18.9542021
C    4.5198059   17.6033945   17.8095548
H    3.9077376   17.6809213   18.5442511
H    4.9675882   18.4417210   17.6761198
H    4.0372176   17.3707472   17.0137677
C   16.0664960    7.3789297    9.9240279
H   15.4648420    6.6645972   10.1458837
H   16.2879840    7.3334613    8.9915905
H   16.8669951    7.2979093   10.4481221
--
0 1
N   36.2414152   41.9088772   13.2163359
O   31.8802889   45.9793166   16.9529985
O   34.8392803   46.9839777   12.3564035
N   36.3672186   39.9408332   15.1593425
H   35.8192771   40.5682625   14.9463288
N   32.8661378   43.2165987   16.5189328
O   39.9197726   38.0676475   13.6758024
N   34.3507736   43.3752129   14.6317116
H   34.6746821   42.5797808   14.6714205
N   35.2914626   39.2181600   17.1941461
N   34.2921320   41.2758951   16.4446593
O   38.5801510   39.5629937   10.2097075
O   37.2883947   37.4589161   18.5288177
O   33.2983566   37.7973598   18.8545277
O   30.4683460   42.5735835   18.2749697
O   35.7255417   44.3363747    9.6341685
N   35.3152524   44.0376790   12.5358173
N   37.6658614   39.9601718   13.1505830
C   33.1837083   41.9636398   16.8417490
C   36.2864334   39.2237798   16.3321237
C   38.1344129   38.5530954   15.1360316
C   33.2647066   45.2675207   15.1810458
C   37.0417052   40.9962033   12.5930497
C   34.6615560   44.2657596   13.6409164
C   34.0012793   45.5127651   14.0187143
C   32.3908009   41.1806725   17.7741864
C   37.4670963   38.3791502   16.3546309
C   35.9571872   42.8788352   12.3009395
C   33.4764347   43.8758012   15.5508055
C   34.2981935   40.1071762   17.1472027
C   37.9572271   37.5285094   17.3722738
C   34.0487045   46.7933897   13.4496060
C   33.0920138   39.9870831   17.9638892
C   39.3152389   37.8471553   14.8643386
C   31.1135754   46.9900559   17.6118137
H   31.6201611   47.8155706   17.6632585
H   30.2948758   47.1626841   17.1214803
C   32.5221719   46.2848266   15.7951684
C   37.4056612   39.5496065   14.3756128
C   36.5287187   42.5563308   11.0045300
C   37.2233046   41.3488136   11.1762271
C   32.5972160   38.9800407   18.7950447
C   33.2954699   47.7646150   14.0524750
H   33.2908794   48.6183203   13.6859306
C   39.1354702   36.8491167   17.0587819
H   39.5005876   36.2765151   17.6938039
C   37.8833126   40.7577961   10.1105154
C   39.7674359   36.9860951   15.8707280
H   40.5369536   36.4873726   15.7163935
C   32.5456860   47.5201675   15.1826535
H   32.0396319   48.2102003   15.5427672
C   36.5078236   43.1947716    9.7584399
C   30.8015149   46.5013746   18.9670633
H   30.4317690   45.6071705   18.8979343
H   31.6262188   46.4394461   19.4734733
C   31.1808676   41.4060880   18.4301079
C   41.1197001   37.3601575   13.3515393
H   41.7412275   37.4018239   14.0942739
H   40.9170598   36.4277499   13.1746977
C   30.7309003   40.4187121   19.2757322
H   29.9352723   40.5556416   19.7387356
C   32.9150208   36.8321268   19.7917881
H   33.0748957   37.1590577   20.6904649
H   31.9688097   36.6371645   19.7001520
C   37.8854820   36.8848907   19.6551378
H   37.9814169   35.9311125   19.5104492
H   38.7739673   37.2592866   19.7676734
C   31.4118924   39.2323347   19.4622197
H   31.0689291   38.5940749   20.0457969
C   37.9064549   41.4293820    8.9128156
H   38.3902965   41.0728264    8.2022340
C   37.2258449   42.6270416    8.7359741
H   37.2576207   43.0526879    7.9096416
C   33.7312951   35.5845220   19.5377793
H   34.6736475   35.8157448   19.5056263
H   33.4855464   35.2067093   18.6776862
C   35.3280421   48.2661376   12.0573805
H   34.5769657   48.8488640   11.8660700
H   35.7817626   48.6176482   12.8386987
C   36.2179116   48.3005997   10.9657856
H   35.7862047   47.8282120   10.2359122
H   36.9933653   47.7751026   11.2165791
C   29.8367615   47.3597515   19.7290897
H   29.0179673   47.4410814   19.2146415
H   30.2150776   48.2465000   19.8223335
C   37.1344105   37.0977761   20.8608758
H   36.2120211   36.8595884   20.6759960
H   37.1494190   38.0502042   21.0489710
C   28.7525241   43.7324014   17.1086190
H   29.2326123   44.5690237   17.0218059
H   28.2894837   43.5911199   16.2678177
C   37.7960418   38.4193094   10.4400838
H   36.9021435   38.6030404   10.1105154
H   37.7272354   38.2964931   11.3998513
C   34.4039398   45.9250365    8.5301948
H   34.5684979   46.4910672    9.3002595
H   33.5718698   45.4500904    8.6893522
C   33.5017723   34.5697771   20.6132976
H   32.5551708   34.3671584   20.6534889
H   33.7567674   34.9546470   21.4653525
C   35.5190963   44.9186508    8.4273051
H   36.3310766   45.3604599    8.1331050
H   35.2884000   44.2406131    7.7713836
C   37.5203556   36.4212127   22.0601833
H   37.4000585   35.4705317   21.9122794
H   38.4692077   36.5707795   22.1904030
C   42.8956022   37.4674120   11.6361760
H   43.5595190   37.4704534   12.3435423
H   42.7368368   36.5420846   11.3950284
C   37.6382572   36.0073861   10.1908980
H   36.7805520   35.9851163    9.7391481
H   37.4461910   36.0068398   11.1426272
C   34.2523228   33.3025931   20.4187719
H   34.0484409   32.6969616   21.1357841
H   33.9988619   32.9049806   19.5827935
H   35.1944681   33.4876020   20.4139489
C   34.2386617   46.7745296    7.3485715
H   34.0084021   46.2010434    6.6026215
H   35.1013340   47.1709201    7.1492228
C   41.7222113   37.9818576   12.1522319
H   41.8786592   38.9160567   12.3564035
H   41.0579611   37.9541277   11.4448655
C   36.8307572   36.7691538   23.3286197
H   37.1781855   36.2264602   24.0408090
H   36.9807160   37.6954773   23.5295761
H   35.8883036   36.6102066   23.2337683
C   29.7221233   42.7196633   17.2066857
H   30.3244189   42.8345565   16.4559129
H   29.2621987   41.8762752   17.0684278
C   38.1956179   37.2619902    9.9079514
H   38.1317069   37.3719536    8.9465763
H   39.1420581   37.1861960   10.1105154
C   33.2899451   47.8188339    7.3935857
H   33.3139767   48.3080818    6.5688609
H   32.4125954   47.4489250    7.5205901
H   33.4973494   48.4086689    8.1218515
C   43.4777087   38.1583104   10.4561603
H   44.2700321   37.6956935   10.1732138
H   42.8384531   38.1623261    9.7407558
H   43.7017418   39.0624005   10.6908773
C   29.5022113   46.8287060   21.0891623
H   28.8839424   47.4236781   21.5216203
H   29.1038947   45.9600975   21.0055644
H   30.3038077   46.7655162   21.6132564
C   36.6957259   49.5090606   10.4416915
H   35.9279451   50.0250899   10.1523143
H   37.1073868   49.9987700   11.1699573
C   37.6734038   49.4781741    9.3082977
H   37.8889948   50.3764319    9.0478583
H   38.4730405   49.0262996    9.5880289
H   37.2858927   49.0121800    8.5639554
C   27.7259284   43.9449360   18.1182237
H   27.2544461   43.1071183   18.2532664
H   28.1630265   44.1683577   18.9542021
C   26.6891436   45.0350392   17.8095548
H   26.0770753   45.1125659   18.5442511
H   27.1369259   45.8733657   17.6761198
H   26.2065554   44.8023919   17.0137677
C   38.2358337   34.8105743    9.9240279
H   37.6341797   34.0962419   10.1458837
H   38.4573217   34.7651060    8.9915905
H   39.0363329   34.7295540   10.4481221
$end
$rem
jobtype sp
method LRC-wPBE 
basis 6-31G**
scf_guess fragmo
sym_ignore true
scf_print_frgm true
sts_dc trans
sts_trans_donor 1-6 
sts_trans_acceptor 1-6 
cis_n_roots 12
cis_singlets 1
cis_triplets 0
sts_dc_bsse 0
rpa 2
$end
--------------------------------------------------------------
 ----------------------------------------------------------------
             Standard Nuclear Orientation (Angstroms)
    I     Atom           X                Y                Z
 ----------------------------------------------------------------
    1      N      14.0720775000    14.4772325000    13.2163359000
    2      O       9.7109512000    18.5476720000    16.9529985000
    3      O      12.6699426000    19.5523330000    12.3564035000
    4      N      14.1978809000    12.5091885000    15.1593425000
    5      H      13.6499394000    13.1366178000    14.9463288000
    6      N      10.6968001000    15.7849540000    16.5189328000
    7      O      17.7504349000    10.6360029000    13.6758024000
    8      N      12.1814359000    15.9435682000    14.6317116000
    9      H      12.5053443000    15.1481361000    14.6714205000
   10      N      13.1221249000    11.7865154000    17.1941461000
   11      N      12.1227943000    13.8442504000    16.4446593000
   12      O      16.4108133000    12.1313491000    10.2097075000
   13      O      15.1190570000    10.0272714000    18.5288177000
   14      O      11.1290189000    10.3657151000    18.8545277000
   15      O       8.2990082000    15.1419389000    18.2749697000
   16      O      13.5562040000    16.9047300000     9.6341685000
   17      N      13.1459147000    16.6060343000    12.5358173000
   18      N      15.4965237000    12.5285272000    13.1505830000
   19      C      11.0143706000    14.5319951000    16.8417490000
   20      C      14.1170956000    11.7921351000    16.3321237000
   21      C      15.9650751000    11.1214508000    15.1360316000
   22      C      11.0953689000    17.8358760000    15.1810458000
   23      C      14.8723675000    13.5645586000    12.5930497000
   24      C      12.4922182000    16.8341150000    13.6409164000
   25      C      11.8319416000    18.0811204000    14.0187143000
   26      C      10.2214631000    13.7490278000    17.7741864000
   27      C      15.2977586000    10.9475056000    16.3546309000
   28      C      13.7878495000    15.4471905000    12.3009395000
   29      C      11.3070969000    16.4441565000    15.5508055000
   30      C      12.1288558000    12.6755315000    17.1472027000
   31      C      15.7878894000    10.0968648000    17.3722738000
   32      C      11.8793668000    19.3617450000    13.4496060000
   33      C      10.9226761000    12.5554385000    17.9638892000
   34      C      17.1459011000    10.4155106000    14.8643386000
   35      C       8.9442376000    19.5584112000    17.6118137000
   36      H       9.4508233000    20.3839259000    17.6632585000
   37      H       8.1255381000    19.7310394000    17.1214803000
   38      C      10.3528342000    18.8531819000    15.7951684000
   39      C      15.2363235000    12.1179618000    14.3756128000
   40      C      14.3593810000    15.1246861000    11.0045300000
   41      C      15.0539669000    13.9171689000    11.1762271000
   42      C      10.4278783000    11.5483961000    18.7950447000
   43      C      11.1261322000    20.3329703000    14.0524750000
   44      H      11.1215417000    21.1866756000    13.6859306000
   45      C      16.9661325000     9.4174721000    17.0587819000
   46      H      17.3312499000     8.8448704000    17.6938039000
   47      C      15.7139749000    13.3261514000    10.1105154000
   48      C      17.5980982000     9.5544504000    15.8707280000
   49      H      18.3676159000     9.0557279000    15.7163935000
   50      C      10.3763483000    20.0885228000    15.1826535000
   51      H       9.8702941000    20.7785556000    15.5427672000
   52      C      14.3384859000    15.7631269000     9.7584399000
   53      C       8.6321772000    19.0697299000    18.9670633000
   54      H       8.2624313000    18.1755258000    18.8979343000
   55      H       9.4568811000    19.0078014000    19.4734733000
   56      C       9.0115299000    13.9744433000    18.4301079000
   57      C      18.9503624000     9.9285128000    13.3515393000
   58      H      19.5718897000     9.9701792000    14.0942739000
   59      H      18.7477221000     8.9961052000    13.1746977000
   60      C       8.5615626000    12.9870674000    19.2757322000
   61      H       7.7659346000    13.1239969000    19.7387356000
   62      C      10.7456831000     9.4004821000    19.7917881000
   63      H      10.9055579000     9.7274130000    20.6904649000
   64      H       9.7994720000     9.2055198000    19.7001520000
   65      C      15.7161443000     9.4532460000    19.6551378000
   66      H      15.8120791000     8.4994678000    19.5104492000
   67      H      16.6046296000     9.8276419000    19.7676734000
   68      C       9.2425547000    11.8006900000    19.4622197000
   69      H       8.8995913000    11.1624303000    20.0457969000
   70      C      15.7371172000    13.9977373000     8.9128156000
   71      H      16.2209588000    13.6411817000     8.2022340000
   72      C      15.0565071000    15.1953969000     8.7359741000
   73      H      15.0882829000    15.6210433000     7.9096416000
   74      C      11.5619574000     8.1528774000    19.5377793000
   75      H      12.5043098000     8.3841001000    19.5056263000
   76      H      11.3162087000     7.7750646000    18.6776862000
   77      C      13.1587044000    20.8344929000    12.0573805000
   78      H      12.4076280000    21.4172194000    11.8660700000
   79      H      13.6124249000    21.1860035000    12.8386987000
   80      C      14.0485738000    20.8689550000    10.9657856000
   81      H      13.6168669000    20.3965673000    10.2359122000
   82      H      14.8240276000    20.3434580000    11.2165791000
   83      C       7.6674238000    19.9281068000    19.7290897000
   84      H       6.8486296000    20.0094367000    19.2146415000
   85      H       8.0457399000    20.8148554000    19.8223335000
   86      C      14.9650728000     9.6661315000    20.8608758000
   87      H      14.0426834000     9.4279437000    20.6759960000
   88      H      14.9800813000    10.6185596000    21.0489710000
   89      C       6.5831864000    16.3007567000    17.1086190000
   90      H       7.0632746000    17.1373790000    17.0218059000
   91      H       6.1201459000    16.1594752000    16.2678177000
   92      C      15.6267041000    10.9876648000    10.4400838000
   93      H      14.7328058000    11.1713958000    10.1105154000
   94      H      15.5578977000    10.8648484000    11.3998513000
   95      C      12.2346021000    18.4933919000     8.5301948000
   96      H      12.3991602000    19.0594225000     9.3002595000
   97      H      11.4025321000    18.0184458000     8.6893522000
   98      C      11.3324346000     7.1381324000    20.6132976000
   99      H      10.3858331000     6.9355137000    20.6534889000
  100      H      11.5874296000     7.5230023000    21.4653525000
  101      C      13.3497586000    17.4870061000     8.4273051000
  102      H      14.1617389000    17.9288152000     8.1331050000
  103      H      13.1190623000    16.8089684000     7.7713836000
  104      C      15.3510178000     8.9895681000    22.0601833000
  105      H      15.2307208000     8.0388870000    21.9122794000
  106      H      16.2998699000     9.1391348000    22.1904030000
  107      C      20.7262645000    10.0357673000    11.6361760000
  108      H      21.3901812000    10.0388088000    12.3435423000
  109      H      20.5674991000     9.1104399000    11.3950284000
  110      C      15.4689195000     8.5757414000    10.1908980000
  111      H      14.6112143000     8.5534716000     9.7391481000
  112      H      15.2768533000     8.5751951000    11.1426272000
  113      C      12.0829851000     5.8709485000    20.4187719000
  114      H      11.8791032000     5.2653169000    21.1357841000
  115      H      11.8295242000     5.4733359000    19.5827935000
  116      H      13.0251303000     6.0559573000    20.4139489000
  117      C      12.0693240000    19.3428850000     7.3485715000
  118      H      11.8390644000    18.7693987000     6.6026215000
  119      H      12.9319963000    19.7392755000     7.1492228000
  120      C      19.5528736000    10.5502129000    12.1522319000
  121      H      19.7093214000    11.4844120000    12.3564035000
  122      H      18.8886234000    10.5224830000    11.4448655000
  123      C      14.6614194000     9.3375091000    23.3286197000
  124      H      15.0088477000     8.7948156000    24.0408090000
  125      H      14.8113782000    10.2638327000    23.5295761000
  126      H      13.7189659000     9.1785619000    23.2337683000
  127      C       7.5527856000    15.2880186000    17.2066857000
  128      H       8.1550812000    15.4029118000    16.4559129000
  129      H       7.0928610000    14.4446305000    17.0684278000
  130      C      16.0262801000     9.8303456000     9.9079514000
  131      H      15.9623692000     9.9403089000     8.9465763000
  132      H      16.9727204000     9.7545513000    10.1105154000
  133      C      11.1206074000    20.3871893000     7.3935857000
  134      H      11.1446390000    20.8764371000     6.5688609000
  135      H      10.2432576000    20.0172803000     7.5205901000
  136      H      11.3280117000    20.9770242000     8.1218515000
  137      C      21.3083710000    10.7266657000    10.4561603000
  138      H      22.1006944000    10.2640489000    10.1732138000
  139      H      20.6691154000    10.7306814000     9.7407558000
  140      H      21.5324041000    11.6307558000    10.6908773000
  141      C       7.3328736000    19.3970613000    21.0891623000
  142      H       6.7146047000    19.9920334000    21.5216203000
  143      H       6.9345570000    18.5284529000    21.0055644000
  144      H       8.1344700000    19.3338715000    21.6132564000
  145      C      14.5263882000    22.0774159000    10.4416915000
  146      H      13.7586074000    22.5934452000    10.1523143000
  147      H      14.9380491000    22.5671254000    11.1699573000
  148      C      15.5040661000    22.0465294000     9.3082977000
  149      H      15.7196571000    22.9447873000     9.0478583000
  150      H      16.3037028000    21.5946549000     9.5880289000
  151      H      15.1165550000    21.5805353000     8.5639554000
  152      C       5.5565906000    16.5132914000    18.1182237000
  153      H       5.0851084000    15.6754736000    18.2532664000
  154      H       5.9936888000    16.7367130000    18.9542021000
  155      C       4.5198059000    17.6033945000    17.8095548000
  156      H       3.9077376000    17.6809213000    18.5442511000
  157      H       4.9675882000    18.4417210000    17.6761198000
  158      H       4.0372176000    17.3707472000    17.0137677000
  159      C      16.0664960000     7.3789297000     9.9240279000
  160      H      15.4648420000     6.6645972000    10.1458837000
  161      H      16.2879840000     7.3334613000     8.9915905000
  162      H      16.8669951000     7.2979093000    10.4481221000
  163      N      36.2414152000    41.9088772000    13.2163359000
  164      O      31.8802889000    45.9793166000    16.9529985000
  165      O      34.8392803000    46.9839777000    12.3564035000
  166      N      36.3672186000    39.9408332000    15.1593425000
  167      H      35.8192771000    40.5682625000    14.9463288000
  168      N      32.8661378000    43.2165987000    16.5189328000
  169      O      39.9197726000    38.0676475000    13.6758024000
  170      N      34.3507736000    43.3752129000    14.6317116000
  171      H      34.6746821000    42.5797808000    14.6714205000
  172      N      35.2914626000    39.2181600000    17.1941461000
  173      N      34.2921320000    41.2758951000    16.4446593000
  174      O      38.5801510000    39.5629937000    10.2097075000
  175      O      37.2883947000    37.4589161000    18.5288177000
  176      O      33.2983566000    37.7973598000    18.8545277000
  177      O      30.4683460000    42.5735835000    18.2749697000
  178      O      35.7255417000    44.3363747000     9.6341685000
  179      N      35.3152524000    44.0376790000    12.5358173000
  180      N      37.6658614000    39.9601718000    13.1505830000
  181      C      33.1837083000    41.9636398000    16.8417490000
  182      C      36.2864334000    39.2237798000    16.3321237000
  183      C      38.1344129000    38.5530954000    15.1360316000
  184      C      33.2647066000    45.2675207000    15.1810458000
  185      C      37.0417052000    40.9962033000    12.5930497000
  186      C      34.6615560000    44.2657596000    13.6409164000
  187      C      34.0012793000    45.5127651000    14.0187143000
  188      C      32.3908009000    41.1806725000    17.7741864000
  189      C      37.4670963000    38.3791502000    16.3546309000
  190      C      35.9571872000    42.8788352000    12.3009395000
  191      C      33.4764347000    43.8758012000    15.5508055000
  192      C      34.2981935000    40.1071762000    17.1472027000
  193      C      37.9572271000    37.5285094000    17.3722738000
  194      C      34.0487045000    46.7933897000    13.4496060000
  195      C      33.0920138000    39.9870831000    17.9638892000
  196      C      39.3152389000    37.8471553000    14.8643386000
  197      C      31.1135754000    46.9900559000    17.6118137000
  198      H      31.6201611000    47.8155706000    17.6632585000
  199      H      30.2948758000    47.1626841000    17.1214803000
  200      C      32.5221719000    46.2848266000    15.7951684000
  201      C      37.4056612000    39.5496065000    14.3756128000
  202      C      36.5287187000    42.5563308000    11.0045300000
  203      C      37.2233046000    41.3488136000    11.1762271000
  204      C      32.5972160000    38.9800407000    18.7950447000
  205      C      33.2954699000    47.7646150000    14.0524750000
  206      H      33.2908794000    48.6183203000    13.6859306000
  207      C      39.1354702000    36.8491167000    17.0587819000
  208      H      39.5005876000    36.2765151000    17.6938039000
  209      C      37.8833126000    40.7577961000    10.1105154000
  210      C      39.7674359000    36.9860951000    15.8707280000
  211      H      40.5369536000    36.4873726000    15.7163935000
  212      C      32.5456860000    47.5201675000    15.1826535000
  213      H      32.0396319000    48.2102003000    15.5427672000
  214      C      36.5078236000    43.1947716000     9.7584399000
  215      C      30.8015149000    46.5013746000    18.9670633000
  216      H      30.4317690000    45.6071705000    18.8979343000
  217      H      31.6262188000    46.4394461000    19.4734733000
  218      C      31.1808676000    41.4060880000    18.4301079000
  219      C      41.1197001000    37.3601575000    13.3515393000
  220      H      41.7412275000    37.4018239000    14.0942739000
  221      H      40.9170598000    36.4277499000    13.1746977000
  222      C      30.7309003000    40.4187121000    19.2757322000
  223      H      29.9352723000    40.5556416000    19.7387356000
  224      C      32.9150208000    36.8321268000    19.7917881000
  225      H      33.0748957000    37.1590577000    20.6904649000
  226      H      31.9688097000    36.6371645000    19.7001520000
  227      C      37.8854820000    36.8848907000    19.6551378000
  228      H      37.9814169000    35.9311125000    19.5104492000
  229      H      38.7739673000    37.2592866000    19.7676734000
  230      C      31.4118924000    39.2323347000    19.4622197000
  231      H      31.0689291000    38.5940749000    20.0457969000
  232      C      37.9064549000    41.4293820000     8.9128156000
  233      H      38.3902965000    41.0728264000     8.2022340000
  234      C      37.2258449000    42.6270416000     8.7359741000
  235      H      37.2576207000    43.0526879000     7.9096416000
  236      C      33.7312951000    35.5845220000    19.5377793000
  237      H      34.6736475000    35.8157448000    19.5056263000
  238      H      33.4855464000    35.2067093000    18.6776862000
  239      C      35.3280421000    48.2661376000    12.0573805000
  240      H      34.5769657000    48.8488640000    11.8660700000
  241      H      35.7817626000    48.6176482000    12.8386987000
  242      C      36.2179116000    48.3005997000    10.9657856000
  243      H      35.7862047000    47.8282120000    10.2359122000
  244      H      36.9933653000    47.7751026000    11.2165791000
  245      C      29.8367615000    47.3597515000    19.7290897000
  246      H      29.0179673000    47.4410814000    19.2146415000
  247      H      30.2150776000    48.2465000000    19.8223335000
  248      C      37.1344105000    37.0977761000    20.8608758000
  249      H      36.2120211000    36.8595884000    20.6759960000
  250      H      37.1494190000    38.0502042000    21.0489710000
  251      C      28.7525241000    43.7324014000    17.1086190000
  252      H      29.2326123000    44.5690237000    17.0218059000
  253      H      28.2894837000    43.5911199000    16.2678177000
  254      C      37.7960418000    38.4193094000    10.4400838000
  255      H      36.9021435000    38.6030404000    10.1105154000
  256      H      37.7272354000    38.2964931000    11.3998513000
  257      C      34.4039398000    45.9250365000     8.5301948000
  258      H      34.5684979000    46.4910672000     9.3002595000
  259      H      33.5718698000    45.4500904000     8.6893522000
  260      C      33.5017723000    34.5697771000    20.6132976000
  261      H      32.5551708000    34.3671584000    20.6534889000
  262      H      33.7567674000    34.9546470000    21.4653525000
  263      C      35.5190963000    44.9186508000     8.4273051000
  264      H      36.3310766000    45.3604599000     8.1331050000
  265      H      35.2884000000    44.2406131000     7.7713836000
  266      C      37.5203556000    36.4212127000    22.0601833000
  267      H      37.4000585000    35.4705317000    21.9122794000
  268      H      38.4692077000    36.5707795000    22.1904030000
  269      C      42.8956022000    37.4674120000    11.6361760000
  270      H      43.5595190000    37.4704534000    12.3435423000
  271      H      42.7368368000    36.5420846000    11.3950284000
  272      C      37.6382572000    36.0073861000    10.1908980000
  273      H      36.7805520000    35.9851163000     9.7391481000
  274      H      37.4461910000    36.0068398000    11.1426272000
  275      C      34.2523228000    33.3025931000    20.4187719000
  276      H      34.0484409000    32.6969616000    21.1357841000
  277      H      33.9988619000    32.9049806000    19.5827935000
  278      H      35.1944681000    33.4876020000    20.4139489000
  279      C      34.2386617000    46.7745296000     7.3485715000
  280      H      34.0084021000    46.2010434000     6.6026215000
  281      H      35.1013340000    47.1709201000     7.1492228000
  282      C      41.7222113000    37.9818576000    12.1522319000
  283      H      41.8786592000    38.9160567000    12.3564035000
  284      H      41.0579611000    37.9541277000    11.4448655000
  285      C      36.8307572000    36.7691538000    23.3286197000
  286      H      37.1781855000    36.2264602000    24.0408090000
  287      H      36.9807160000    37.6954773000    23.5295761000
  288      H      35.8883036000    36.6102066000    23.2337683000
  289      C      29.7221233000    42.7196633000    17.2066857000
  290      H      30.3244189000    42.8345565000    16.4559129000
  291      H      29.2621987000    41.8762752000    17.0684278000
  292      C      38.1956179000    37.2619902000     9.9079514000
  293      H      38.1317069000    37.3719536000     8.9465763000
  294      H      39.1420581000    37.1861960000    10.1105154000
  295      C      33.2899451000    47.8188339000     7.3935857000
  296      H      33.3139767000    48.3080818000     6.5688609000
  297      H      32.4125954000    47.4489250000     7.5205901000
  298      H      33.4973494000    48.4086689000     8.1218515000
  299      C      43.4777087000    38.1583104000    10.4561603000
  300      H      44.2700321000    37.6956935000    10.1732138000
  301      H      42.8384531000    38.1623261000     9.7407558000
  302      H      43.7017418000    39.0624005000    10.6908773000
  303      C      29.5022113000    46.8287060000    21.0891623000
  304      H      28.8839424000    47.4236781000    21.5216203000
  305      H      29.1038947000    45.9600975000    21.0055644000
  306      H      30.3038077000    46.7655162000    21.6132564000
  307      C      36.6957259000    49.5090606000    10.4416915000
  308      H      35.9279451000    50.0250899000    10.1523143000
  309      H      37.1073868000    49.9987700000    11.1699573000
  310      C      37.6734038000    49.4781741000     9.3082977000
  311      H      37.8889948000    50.3764319000     9.0478583000
  312      H      38.4730405000    49.0262996000     9.5880289000
  313      H      37.2858927000    49.0121800000     8.5639554000
  314      C      27.7259284000    43.9449360000    18.1182237000
  315      H      27.2544461000    43.1071183000    18.2532664000
  316      H      28.1630265000    44.1683577000    18.9542021000
  317      C      26.6891436000    45.0350392000    17.8095548000
  318      H      26.0770753000    45.1125659000    18.5442511000
  319      H      27.1369259000    45.8733657000    17.6761198000
  320      H      26.2065554000    44.8023919000    17.0137677000
  321      C      38.2358337000    34.8105743000     9.9240279000
  322      H      37.6341797000    34.0962419000    10.1458837000
  323      H      38.4573217000    34.7651060000     8.9915905000
  324      H      39.0363329000    34.7295540000    10.4481221000
 ----------------------------------------------------------------
 Nuclear Repulsion Energy =       33045.60502041 hartrees
 There are      586 alpha and      586 beta electrons
 Requested basis set is 6-31G(d,p)
 There are 1132 shells and 3220 basis functions

 Total QAlloc Memory Limit   2000 MB
 Mega-Array Size       188 MB
 MEM_STATIC part       192 MB

 A cutoff of  1.0D-12 yielded  70332 shell pairs
 There are    620080 function pairs
 Smallest overlap matrix eigenvalue = 1.72E-04

 Scale SEOQF with 1.000000e-03/1.000000e-03/1.000000e-03

 Standard Electronic Orientation quadrupole field applied
 Nucleus-field energy     =     0.0000008234 hartrees
 Can only be proccessed by the old fragmo guess code
 Guess MOs from converged MOs on fragments

QCSCRATCH   is /scratch/sanghita
QCFILEPREF  is /scratch/sanghita/qchem145414/

-----------------------------------------------------------------
 SCF on fragment 1 out of 2 in state 1
-----------------------------------------------------------------

/home/chance/software/ccats2023/exe/qcprog.exe /scratch/sanghita/qchem145414/Frg1s1.input /scratch/sanghita/qchem145414/Frg1s1/
                  Welcome to Q-Chem
     A Quantum Leap Into The Future Of Chemistry


 Q-Chem 6.1 (devel), Q-Chem, Inc., Pleasanton, CA (2022)

 E. Epifanovsky,  A. T. B. Gilbert,  Xintian Feng,  Joonho Lee,  Yuezhi Mao,  
 N. Mardirossian,  P. Pokhilko,  A. White,  M. Wormit,  M. P. Coons,  
 A. L. Dempwolff,  Zhengting Gan,  D. Hait,  P. R. Horn,  L. D. Jacobson,  
 I. Kaliman,  J. Kussmann,  A. W. Lange,  Ka Un Lao,  D. S. Levine,  Jie Liu,  
 S. C. McKenzie,  A. F. Morrison,  K. Nanda,  F. Plasser,  D. R. Rehn,  
 M. L. Vidal,  Zhi-Qiang You,  Ying Zhu,  B. Alam,  B. Albrecht,  
 A. Aldossary,  E. Alguire,  J. H. Andersen,  V. Athavale,  D. Barton,  
 K. Begam,  A. Behn,  N. Bellonzi,  Y. A. Bernard,  E. J. Berquist,  
 H. Burton,  A. Carreras,  K. Carter-Fenk,  Mathew Chow,  Romit Chakraborty,  
 Chandrima Chakravarty,  Junhan Chen,  A. D. Chien,  K. D. Closser,  
 V. Cofer-Shabica,  L. Cunha,  S. Dasgupta,  Jia Deng,  M. de Wergifosse,  
 M. Diedenhofen,  Hainam Do,  S. Ehlert,  Po-Tung Fang,  S. Fatehi,  
 Qingguo Feng,  T. Friedhoff,  Thomas Froitzheim,  B. Ganoe,  J. Gayvert,  
 Qinghui Ge,  G. Gidofalvi,  M. Goldey,  Montgomery Gray,  J. Gomes,  
 C. Gonzalez-Espinoza,  S. Gulania,  A. Gunina,  J. A. Gyamfi,  
 M. W. D. Hanson-Heine,  P. H. P. Harbach,  A. W. Hauser,  M. F. Herbst,  
 M. Hernandez Vera,  M. Hodecker,  Z. C. Holden,  S. Houck,  Xunkun Huang,  
 Kerwin Hui,  B. C. Huynh,  K. Ikeda,  M. Ivanov,  Hyunjun Ji,  Zuxin Jin,  
 Hanjie Jiang,  Subrata Jana,  B. Kaduk,  S. Kaehler,  R. Kang,  
 K. Khistyaev,  Jaehoon Kim,  Yongbin Kim,  P. Klunzinger,  Z. Koczor-Benda,  
 Joong Hoon Koh,  D. Kosenkov,  Saikiran Kotaru,  L. Koulias,  T. Kowalczyk,  
 C. M. Krauter,  K. Kue,  A. Kunitsa,  T. Kus,  A. Landau,  K. V. Lawler,  
 D. Lefrancois,  S. Lehtola,  Rain Li,  Shaozhi Li,  Yi-Pei Li,  
 Jiashu Liang,  M. Liebenthal,  Hung-Hsuan Lin,  You-Sheng Lin,  Fenglai Liu,  
 Kuan-Yu Liu,  M. Loipersberger,  A. Luenser,  C. Malbon,  A. Manjanath,  
 P. Manohar,  E. Mansoor,  S. F. Manzer,  Shan-Ping Mao,  A. V. Marenich,  
 T. Markovich,  S. Mason,  F. Matz,  S. A. Maurer,  P. F. McLaughlin,  
 M. F. S. J. Menger,  J.-M. Mewes,  S. A. Mewes,  P. Morgante,  
 Mohammad Mostafanejad,  J. W. Mullinax,  K. J. Oosterbaan,  G. Paran,  
 V. Parravicini,  Alexander C. Paul,  Suranjan K. Paul,  F. Pavosevic,  
 Zheng Pei,  S. Prager,  E. I. Proynov,  E. Ramos,  B. Rana,  A. E. Rask,  
 A. Rettig,  R. M. Richard,  F. Rob,  E. Rossomme,  T. Scheele,  M. Scheurer,  
 M. Schneider,  P. E. Schneider,  N. Sergueev,  S. M. Sharada,  
 Hengyuan Shen,  W. Skomorowski,  D. W. Small,  C. J. Stein,  Yingli Su,  
 Yu-Chuan Su,  E. J. Sundstrom,  Zhen Tao,  J. Thirman,  Hung-Yi Tsai,  
 T. Tsuchimochi,  N. M. Tubman,  C. Utku,  S. P. Veccham,  O. Vydrov,  
 J. Wenzel,  Jonathan Wong,  J. Witte,  A. Yamada,  Chou-Hsun Yang,  Kun Yao,  
 S. Yeganeh,  S. R. Yost,  A. Zech,  F. Zeller,  Igor Ying Zhang,  
 Xing Zhang,  Yu Zhang,  D. Zuev,  A. Aspuru-Guzik,  A. T. Bell,  
 N. A. Besley,  K. B. Bravaya,  B. R. Brooks,  D. Casanova,  Jeng-Da Chai,  
 Hsing-Ta Chen,  S. Coriani,  C. J. Cramer,  A. E. DePrince, III,  
 R. A. DiStasio Jr.,  A. Dreuw,  B. D. Dunietz,  T. R. Furlani,  
 W. A. Goddard III,  S. Grimme,  S. Hammes-Schiffer,  T. Head-Gordon,  
 W. J. Hehre,  Chao-Ping Hsu,  T.-C. Jagau,  Yousung Jung,  A. Klamt,  
 Jing Kong,  D. S. Lambrecht,  Xiangyuan Li,  WanZhen Liang,  N. J. Mayhall,  
 C. W. McCurdy,  J. B. Neaton,  T. Neudecker,  C. Ochsenfeld,  
 J. A. Parkhill,  R. Peverati,  V. A. Rassolov,  Haisheng Ren,  Yihan Shao,  
 L. V. Slipchenko,  R. P. Steele,  J. E. Subotnik,  A. J. W. Thom,  
 A. Tkatchenko,  D. G. Truhlar,  T. Van Voorhis,  Fan Wang,  
 T. A. Wesolowski,  K. B. Whaley,  H. L. Woodcock III,  P. M. Zimmerman,  
 S. Faraji,  P. M. W. Gill,  M. Head-Gordon,  J. M. Herbert,  A. I. Krylov

 Contributors to earlier versions of Q-Chem not listed above: 
 R. D. Adamson,  B. Austin,  R. Baer,  J. Baker,  G. J. O. Beran,  
 K. Brandhorst,  S. T. Brown,  E. F. C. Byrd,  Arup K. Chakraborty,  
 G. K. L. Chan,  Chun-Min Chang,  Yunqing Chen,  C.-L. Cheng,  
 Siu Hung Chien,  D. M. Chipman,  D. L. Crittenden,  H. Dachsel,  
 R. J. Doerksen,  A. D. Dutoi,  R. G. Edgar,  J. Fosso-Tande,  
 L. Fusti-Molnar,  D. Ghosh,  A. Ghysels,  A. Golubeva-Zadorozhnaya,  
 J. Gonthier,  M. S. Gordon,  S. R. Gwaltney,  G. Hawkins,  J. E. Herr,  
 A. Heyden,  S. Hirata,  E. G. Hohenstein,  G. Kedziora,  F. J. Keil,  
 C. Kelley,  Jihan Kim,  R. A. King,  R. Z. Khaliullin,  P. P. Korambath,  
 W. Kurlancheek,  A. Laurent,  A. M. Lee,  M. S. Lee,  S. V. Levchenko,  
 Ching Yeh Lin,  D. Liotard,  E. Livshits,  R. C. Lochan,  I. Lotan,  
 L. A. Martinez-Martinez,  P. E. Maslen,  N. Nair,  D. P. O'Neill,  
 D. Neuhauser,  E. Neuscamman,  C. M. Oana,  R. Olivares-Amaya,  R. Olson,  
 T. M. Perrine,  B. Peters,  P. A. Pieniazek,  A. Prociuk,  Y. M. Rhee,  
 J. Ritchie,  M. A. Rohrdanz,  E. Rosta,  N. J. Russ,  H. F. Schaefer III,  
 M. W. Schmidt,  N. E. Schultz,  S. Sharma,  N. Shenvi,  C. D. Sherrill,  
 A. C. Simmonett,  A. Sodt,  T. Stein,  D. Stuck,  K. S. Thanthiriwatte,  
 V. Vanovschi,  L. Vogt,  Tao Wang,  A. Warshel,  M. A. Watson,  
 C. F. Williams,  Q. Wu,  X. Xu,  Jun Yang,  W. Zhang,  Yan Zhao

   Please cite Q-Chem as follows:
  "Software for the frontiers of quantum chemistry:
   An overview of developments in the Q-Chem 5 package"
   J. Chem. Phys. 155, 084801 (2021)
   https://doi.org/10.1063/5.0055522 (open access)

 Q-Chem 6.1.0 for Intel X86 EM64T Linux

 Parts of Q-Chem use Armadillo 9.900.5 (Nocturnal Misbehaviour).
 http://arma.sourceforge.net/

 Q-Chem begins on Tue Feb 11 02:27:24 2025  

 Host: n089.cluster
0

     Scratch files written to /scratch/sanghita/qchem145414/Frg1s1//
 Processing $rem in /home/chance/software/ccats2023/config/preferences:
 Processing $rem in /home/sanghita/.qchemrc:

 Checking the input file for inconsistencies... 	...done.

--------------------------------------------------------------
User input:
--------------------------------------------------------------
$molecule
0 1
 7	14.0720775000	14.4772325000	13.2163359000
 8	9.7109512000	18.5476720000	16.9529985000
 8	12.6699426000	19.5523330000	12.3564035000
 7	14.1978809000	12.5091885000	15.1593425000
 1	13.6499394000	13.1366178000	14.9463288000
 7	10.6968001000	15.7849540000	16.5189328000
 8	17.7504349000	10.6360029000	13.6758024000
 7	12.1814359000	15.9435682000	14.6317116000
 1	12.5053443000	15.1481361000	14.6714205000
 7	13.1221249000	11.7865154000	17.1941461000
 7	12.1227943000	13.8442504000	16.4446593000
 8	16.4108133000	12.1313491000	10.2097075000
 8	15.1190570000	10.0272714000	18.5288177000
 8	11.1290189000	10.3657151000	18.8545277000
 8	8.2990082000	15.1419389000	18.2749697000
 8	13.5562040000	16.9047300000	9.6341685000
 7	13.1459147000	16.6060343000	12.5358173000
 7	15.4965237000	12.5285272000	13.1505830000
 6	11.0143706000	14.5319951000	16.8417490000
 6	14.1170956000	11.7921351000	16.3321237000
 6	15.9650751000	11.1214508000	15.1360316000
 6	11.0953689000	17.8358760000	15.1810458000
 6	14.8723675000	13.5645586000	12.5930497000
 6	12.4922182000	16.8341150000	13.6409164000
 6	11.8319416000	18.0811204000	14.0187143000
 6	10.2214631000	13.7490278000	17.7741864000
 6	15.2977586000	10.9475056000	16.3546309000
 6	13.7878495000	15.4471905000	12.3009395000
 6	11.3070969000	16.4441565000	15.5508055000
 6	12.1288558000	12.6755315000	17.1472027000
 6	15.7878894000	10.0968648000	17.3722738000
 6	11.8793668000	19.3617450000	13.4496060000
 6	10.9226761000	12.5554385000	17.9638892000
 6	17.1459011000	10.4155106000	14.8643386000
 6	8.9442376000	19.5584112000	17.6118137000
 1	9.4508233000	20.3839259000	17.6632585000
 1	8.1255381000	19.7310394000	17.1214803000
 6	10.3528342000	18.8531819000	15.7951684000
 6	15.2363235000	12.1179618000	14.3756128000
 6	14.3593810000	15.1246861000	11.0045300000
 6	15.0539669000	13.9171689000	11.1762271000
 6	10.4278783000	11.5483961000	18.7950447000
 6	11.1261322000	20.3329703000	14.0524750000
 1	11.1215417000	21.1866756000	13.6859306000
 6	16.9661325000	9.4174721000	17.0587819000
 1	17.3312499000	8.8448704000	17.6938039000
 6	15.7139749000	13.3261514000	10.1105154000
 6	17.5980982000	9.5544504000	15.8707280000
 1	18.3676159000	9.0557279000	15.7163935000
 6	10.3763483000	20.0885228000	15.1826535000
 1	9.8702941000	20.7785556000	15.5427672000
 6	14.3384859000	15.7631269000	9.7584399000
 6	8.6321772000	19.0697299000	18.9670633000
 1	8.2624313000	18.1755258000	18.8979343000
 1	9.4568811000	19.0078014000	19.4734733000
 6	9.0115299000	13.9744433000	18.4301079000
 6	18.9503624000	9.9285128000	13.3515393000
 1	19.5718897000	9.9701792000	14.0942739000
 1	18.7477221000	8.9961052000	13.1746977000
 6	8.5615626000	12.9870674000	19.2757322000
 1	7.7659346000	13.1239969000	19.7387356000
 6	10.7456831000	9.4004821000	19.7917881000
 1	10.9055579000	9.7274130000	20.6904649000
 1	9.7994720000	9.2055198000	19.7001520000
 6	15.7161443000	9.4532460000	19.6551378000
 1	15.8120791000	8.4994678000	19.5104492000
 1	16.6046296000	9.8276419000	19.7676734000
 6	9.2425547000	11.8006900000	19.4622197000
 1	8.8995913000	11.1624303000	20.0457969000
 6	15.7371172000	13.9977373000	8.9128156000
 1	16.2209588000	13.6411817000	8.2022340000
 6	15.0565071000	15.1953969000	8.7359741000
 1	15.0882829000	15.6210433000	7.9096416000
 6	11.5619574000	8.1528774000	19.5377793000
 1	12.5043098000	8.3841001000	19.5056263000
 1	11.3162087000	7.7750646000	18.6776862000
 6	13.1587044000	20.8344929000	12.0573805000
 1	12.4076280000	21.4172194000	11.8660700000
 1	13.6124249000	21.1860035000	12.8386987000
 6	14.0485738000	20.8689550000	10.9657856000
 1	13.6168669000	20.3965673000	10.2359122000
 1	14.8240276000	20.3434580000	11.2165791000
 6	7.6674238000	19.9281068000	19.7290897000
 1	6.8486296000	20.0094367000	19.2146415000
 1	8.0457399000	20.8148554000	19.8223335000
 6	14.9650728000	9.6661315000	20.8608758000
 1	14.0426834000	9.4279437000	20.6759960000
 1	14.9800813000	10.6185596000	21.0489710000
 6	6.5831864000	16.3007567000	17.1086190000
 1	7.0632746000	17.1373790000	17.0218059000
 1	6.1201459000	16.1594752000	16.2678177000
 6	15.6267041000	10.9876648000	10.4400838000
 1	14.7328058000	11.1713958000	10.1105154000
 1	15.5578977000	10.8648484000	11.3998513000
 6	12.2346021000	18.4933919000	8.5301948000
 1	12.3991602000	19.0594225000	9.3002595000
 1	11.4025321000	18.0184458000	8.6893522000
 6	11.3324346000	7.1381324000	20.6132976000
 1	10.3858331000	6.9355137000	20.6534889000
 1	11.5874296000	7.5230023000	21.4653525000
 6	13.3497586000	17.4870061000	8.4273051000
 1	14.1617389000	17.9288152000	8.1331050000
 1	13.1190623000	16.8089684000	7.7713836000
 6	15.3510178000	8.9895681000	22.0601833000
 1	15.2307208000	8.0388870000	21.9122794000
 1	16.2998699000	9.1391348000	22.1904030000
 6	20.7262645000	10.0357673000	11.6361760000
 1	21.3901812000	10.0388088000	12.3435423000
 1	20.5674991000	9.1104399000	11.3950284000
 6	15.4689195000	8.5757414000	10.1908980000
 1	14.6112143000	8.5534716000	9.7391481000
 1	15.2768533000	8.5751951000	11.1426272000
 6	12.0829851000	5.8709485000	20.4187719000
 1	11.8791032000	5.2653169000	21.1357841000
 1	11.8295242000	5.4733359000	19.5827935000
 1	13.0251303000	6.0559573000	20.4139489000
 6	12.0693240000	19.3428850000	7.3485715000
 1	11.8390644000	18.7693987000	6.6026215000
 1	12.9319963000	19.7392755000	7.1492228000
 6	19.5528736000	10.5502129000	12.1522319000
 1	19.7093214000	11.4844120000	12.3564035000
 1	18.8886234000	10.5224830000	11.4448655000
 6	14.6614194000	9.3375091000	23.3286197000
 1	15.0088477000	8.7948156000	24.0408090000
 1	14.8113782000	10.2638327000	23.5295761000
 1	13.7189659000	9.1785619000	23.2337683000
 6	7.5527856000	15.2880186000	17.2066857000
 1	8.1550812000	15.4029118000	16.4559129000
 1	7.0928610000	14.4446305000	17.0684278000
 6	16.0262801000	9.8303456000	9.9079514000
 1	15.9623692000	9.9403089000	8.9465763000
 1	16.9727204000	9.7545513000	10.1105154000
 6	11.1206074000	20.3871893000	7.3935857000
 1	11.1446390000	20.8764371000	6.5688609000
 1	10.2432576000	20.0172803000	7.5205901000
 1	11.3280117000	20.9770242000	8.1218515000
 6	21.3083710000	10.7266657000	10.4561603000
 1	22.1006944000	10.2640489000	10.1732138000
 1	20.6691154000	10.7306814000	9.7407558000
 1	21.5324041000	11.6307558000	10.6908773000
 6	7.3328736000	19.3970613000	21.0891623000
 1	6.7146047000	19.9920334000	21.5216203000
 1	6.9345570000	18.5284529000	21.0055644000
 1	8.1344700000	19.3338715000	21.6132564000
 6	14.5263882000	22.0774159000	10.4416915000
 1	13.7586074000	22.5934452000	10.1523143000
 1	14.9380491000	22.5671254000	11.1699573000
 6	15.5040661000	22.0465294000	9.3082977000
 1	15.7196571000	22.9447873000	9.0478583000
 1	16.3037028000	21.5946549000	9.5880289000
 1	15.1165550000	21.5805353000	8.5639554000
 6	5.5565906000	16.5132914000	18.1182237000
 1	5.0851084000	15.6754736000	18.2532664000
 1	5.9936888000	16.7367130000	18.9542021000
 6	4.5198059000	17.6033945000	17.8095548000
 1	3.9077376000	17.6809213000	18.5442511000
 1	4.9675882000	18.4417210000	17.6761198000
 1	4.0372176000	17.3707472000	17.0137677000
 6	16.0664960000	7.3789297000	9.9240279000
 1	15.4648420000	6.6645972000	10.1458837000
 1	16.2879840000	7.3334613000	8.9915905000
 1	16.8669951000	7.2979093000	10.4481221000
$end

$rem
METHOD		LRC-WPBE
BASIS		6-31G**
SYM_IGNORE		TRUE
SCF_PRINT_FRGM		TRUE
CIS_N_ROOTS		12
CIS_SINGLETS		1
CIS_TRIPLETS		0
RPA		2
!required keywords
JOBTYPE		SP
SYM_IGNORE		TRUE
SUBSYSTEM		TRUE
SAVE_SUBSYSTEM		TRUE
GEN_SCFMAN		0
ECP		0
$end
--------------------------------------------------------------
 ----------------------------------------------------------------
             Standard Nuclear Orientation (Angstroms)
    I     Atom           X                Y                Z
 ----------------------------------------------------------------
    1      N      14.0720775000    14.4772325000    13.2163359000
    2      O       9.7109512000    18.5476720000    16.9529985000
    3      O      12.6699426000    19.5523330000    12.3564035000
    4      N      14.1978809000    12.5091885000    15.1593425000
    5      H      13.6499394000    13.1366178000    14.9463288000
    6      N      10.6968001000    15.7849540000    16.5189328000
    7      O      17.7504349000    10.6360029000    13.6758024000
    8      N      12.1814359000    15.9435682000    14.6317116000
    9      H      12.5053443000    15.1481361000    14.6714205000
   10      N      13.1221249000    11.7865154000    17.1941461000
   11      N      12.1227943000    13.8442504000    16.4446593000
   12      O      16.4108133000    12.1313491000    10.2097075000
   13      O      15.1190570000    10.0272714000    18.5288177000
   14      O      11.1290189000    10.3657151000    18.8545277000
   15      O       8.2990082000    15.1419389000    18.2749697000
   16      O      13.5562040000    16.9047300000     9.6341685000
   17      N      13.1459147000    16.6060343000    12.5358173000
   18      N      15.4965237000    12.5285272000    13.1505830000
   19      C      11.0143706000    14.5319951000    16.8417490000
   20      C      14.1170956000    11.7921351000    16.3321237000
   21      C      15.9650751000    11.1214508000    15.1360316000
   22      C      11.0953689000    17.8358760000    15.1810458000
   23      C      14.8723675000    13.5645586000    12.5930497000
   24      C      12.4922182000    16.8341150000    13.6409164000
   25      C      11.8319416000    18.0811204000    14.0187143000
   26      C      10.2214631000    13.7490278000    17.7741864000
   27      C      15.2977586000    10.9475056000    16.3546309000
   28      C      13.7878495000    15.4471905000    12.3009395000
   29      C      11.3070969000    16.4441565000    15.5508055000
   30      C      12.1288558000    12.6755315000    17.1472027000
   31      C      15.7878894000    10.0968648000    17.3722738000
   32      C      11.8793668000    19.3617450000    13.4496060000
   33      C      10.9226761000    12.5554385000    17.9638892000
   34      C      17.1459011000    10.4155106000    14.8643386000
   35      C       8.9442376000    19.5584112000    17.6118137000
   36      H       9.4508233000    20.3839259000    17.6632585000
   37      H       8.1255381000    19.7310394000    17.1214803000
   38      C      10.3528342000    18.8531819000    15.7951684000
   39      C      15.2363235000    12.1179618000    14.3756128000
   40      C      14.3593810000    15.1246861000    11.0045300000
   41      C      15.0539669000    13.9171689000    11.1762271000
   42      C      10.4278783000    11.5483961000    18.7950447000
   43      C      11.1261322000    20.3329703000    14.0524750000
   44      H      11.1215417000    21.1866756000    13.6859306000
   45      C      16.9661325000     9.4174721000    17.0587819000
   46      H      17.3312499000     8.8448704000    17.6938039000
   47      C      15.7139749000    13.3261514000    10.1105154000
   48      C      17.5980982000     9.5544504000    15.8707280000
   49      H      18.3676159000     9.0557279000    15.7163935000
   50      C      10.3763483000    20.0885228000    15.1826535000
   51      H       9.8702941000    20.7785556000    15.5427672000
   52      C      14.3384859000    15.7631269000     9.7584399000
   53      C       8.6321772000    19.0697299000    18.9670633000
   54      H       8.2624313000    18.1755258000    18.8979343000
   55      H       9.4568811000    19.0078014000    19.4734733000
   56      C       9.0115299000    13.9744433000    18.4301079000
   57      C      18.9503624000     9.9285128000    13.3515393000
   58      H      19.5718897000     9.9701792000    14.0942739000
   59      H      18.7477221000     8.9961052000    13.1746977000
   60      C       8.5615626000    12.9870674000    19.2757322000
   61      H       7.7659346000    13.1239969000    19.7387356000
   62      C      10.7456831000     9.4004821000    19.7917881000
   63      H      10.9055579000     9.7274130000    20.6904649000
   64      H       9.7994720000     9.2055198000    19.7001520000
   65      C      15.7161443000     9.4532460000    19.6551378000
   66      H      15.8120791000     8.4994678000    19.5104492000
   67      H      16.6046296000     9.8276419000    19.7676734000
   68      C       9.2425547000    11.8006900000    19.4622197000
   69      H       8.8995913000    11.1624303000    20.0457969000
   70      C      15.7371172000    13.9977373000     8.9128156000
   71      H      16.2209588000    13.6411817000     8.2022340000
   72      C      15.0565071000    15.1953969000     8.7359741000
   73      H      15.0882829000    15.6210433000     7.9096416000
   74      C      11.5619574000     8.1528774000    19.5377793000
   75      H      12.5043098000     8.3841001000    19.5056263000
   76      H      11.3162087000     7.7750646000    18.6776862000
   77      C      13.1587044000    20.8344929000    12.0573805000
   78      H      12.4076280000    21.4172194000    11.8660700000
   79      H      13.6124249000    21.1860035000    12.8386987000
   80      C      14.0485738000    20.8689550000    10.9657856000
   81      H      13.6168669000    20.3965673000    10.2359122000
   82      H      14.8240276000    20.3434580000    11.2165791000
   83      C       7.6674238000    19.9281068000    19.7290897000
   84      H       6.8486296000    20.0094367000    19.2146415000
   85      H       8.0457399000    20.8148554000    19.8223335000
   86      C      14.9650728000     9.6661315000    20.8608758000
   87      H      14.0426834000     9.4279437000    20.6759960000
   88      H      14.9800813000    10.6185596000    21.0489710000
   89      C       6.5831864000    16.3007567000    17.1086190000
   90      H       7.0632746000    17.1373790000    17.0218059000
   91      H       6.1201459000    16.1594752000    16.2678177000
   92      C      15.6267041000    10.9876648000    10.4400838000
   93      H      14.7328058000    11.1713958000    10.1105154000
   94      H      15.5578977000    10.8648484000    11.3998513000
   95      C      12.2346021000    18.4933919000     8.5301948000
   96      H      12.3991602000    19.0594225000     9.3002595000
   97      H      11.4025321000    18.0184458000     8.6893522000
   98      C      11.3324346000     7.1381324000    20.6132976000
   99      H      10.3858331000     6.9355137000    20.6534889000
  100      H      11.5874296000     7.5230023000    21.4653525000
  101      C      13.3497586000    17.4870061000     8.4273051000
  102      H      14.1617389000    17.9288152000     8.1331050000
  103      H      13.1190623000    16.8089684000     7.7713836000
  104      C      15.3510178000     8.9895681000    22.0601833000
  105      H      15.2307208000     8.0388870000    21.9122794000
  106      H      16.2998699000     9.1391348000    22.1904030000
  107      C      20.7262645000    10.0357673000    11.6361760000
  108      H      21.3901812000    10.0388088000    12.3435423000
  109      H      20.5674991000     9.1104399000    11.3950284000
  110      C      15.4689195000     8.5757414000    10.1908980000
  111      H      14.6112143000     8.5534716000     9.7391481000
  112      H      15.2768533000     8.5751951000    11.1426272000
  113      C      12.0829851000     5.8709485000    20.4187719000
  114      H      11.8791032000     5.2653169000    21.1357841000
  115      H      11.8295242000     5.4733359000    19.5827935000
  116      H      13.0251303000     6.0559573000    20.4139489000
  117      C      12.0693240000    19.3428850000     7.3485715000
  118      H      11.8390644000    18.7693987000     6.6026215000
  119      H      12.9319963000    19.7392755000     7.1492228000
  120      C      19.5528736000    10.5502129000    12.1522319000
  121      H      19.7093214000    11.4844120000    12.3564035000
  122      H      18.8886234000    10.5224830000    11.4448655000
  123      C      14.6614194000     9.3375091000    23.3286197000
  124      H      15.0088477000     8.7948156000    24.0408090000
  125      H      14.8113782000    10.2638327000    23.5295761000
  126      H      13.7189659000     9.1785619000    23.2337683000
  127      C       7.5527856000    15.2880186000    17.2066857000
  128      H       8.1550812000    15.4029118000    16.4559129000
  129      H       7.0928610000    14.4446305000    17.0684278000
  130      C      16.0262801000     9.8303456000     9.9079514000
  131      H      15.9623692000     9.9403089000     8.9465763000
  132      H      16.9727204000     9.7545513000    10.1105154000
  133      C      11.1206074000    20.3871893000     7.3935857000
  134      H      11.1446390000    20.8764371000     6.5688609000
  135      H      10.2432576000    20.0172803000     7.5205901000
  136      H      11.3280117000    20.9770242000     8.1218515000
  137      C      21.3083710000    10.7266657000    10.4561603000
  138      H      22.1006944000    10.2640489000    10.1732138000
  139      H      20.6691154000    10.7306814000     9.7407558000
  140      H      21.5324041000    11.6307558000    10.6908773000
  141      C       7.3328736000    19.3970613000    21.0891623000
  142      H       6.7146047000    19.9920334000    21.5216203000
  143      H       6.9345570000    18.5284529000    21.0055644000
  144      H       8.1344700000    19.3338715000    21.6132564000
  145      C      14.5263882000    22.0774159000    10.4416915000
  146      H      13.7586074000    22.5934452000    10.1523143000
  147      H      14.9380491000    22.5671254000    11.1699573000
  148      C      15.5040661000    22.0465294000     9.3082977000
  149      H      15.7196571000    22.9447873000     9.0478583000
  150      H      16.3037028000    21.5946549000     9.5880289000
  151      H      15.1165550000    21.5805353000     8.5639554000
  152      C       5.5565906000    16.5132914000    18.1182237000
  153      H       5.0851084000    15.6754736000    18.2532664000
  154      H       5.9936888000    16.7367130000    18.9542021000
  155      C       4.5198059000    17.6033945000    17.8095548000
  156      H       3.9077376000    17.6809213000    18.5442511000
  157      H       4.9675882000    18.4417210000    17.6761198000
  158      H       4.0372176000    17.3707472000    17.0137677000
  159      C      16.0664960000     7.3789297000     9.9240279000
  160      H      15.4648420000     6.6645972000    10.1458837000
  161      H      16.2879840000     7.3334613000     8.9915905000
  162      H      16.8669951000     7.2979093000    10.4481221000
 ----------------------------------------------------------------
 Nuclear Repulsion Energy =       13987.39809617 hartrees
 There are      293 alpha and      293 beta electrons
 Requested basis set is 6-31G(d,p)
 There are 566 shells and 1610 basis functions

 Total QAlloc Memory Limit   2000 MB
 Mega-Array Size       188 MB
 MEM_STATIC part       192 MB

 A cutoff of  1.0D-12 yielded  35166 shell pairs
 There are    310040 function pairs
 Smallest overlap matrix eigenvalue = 1.72E-04

 Scale SEOQF with 1.000000e-03/1.000000e-03/1.000000e-03

 Standard Electronic Orientation quadrupole field applied
 Nucleus-field energy     =    -0.0000000199 hartrees
 Guess from superposition of atomic densities
 Warning:  Energy on first SCF cycle will be non-variational
 SAD guess density has 586.000001 electrons
 Long-range K will be added via erf
 Coulomb attenuation parameter = 0.3 bohr**(-1)
 A restricted Kohn-Sham SCF calculation will be
 performed using Pulay DIIS extrapolation
 Exchange:  wPBE + LR-HF      Correlation:  PBE
 Using SG-1 standard quadrature grid
 SCF converges when DIIS error is below 1.0E-08
 using 8 threads for integral computing
 -------------------------------------------------------
 OpenMP Integral computing Module                
 Release: version 1.0, May 2013, Q-Chem Inc. Pittsburgh 
 -------------------------------------------------------
 ---------------------------------------
  Cycle       Energy         DIIS Error
 ---------------------------------------
    1   -3560.1025019745      2.11E-02
    2   -3522.6719974017      1.72E-03
    3   -3523.0474216945      1.43E-03
    4   -3523.5585199501      2.51E-04
    5   -3523.5738610455      1.11E-04
    6   -3523.5773731258      2.60E-05
    7   -3523.5775991523      1.03E-05
    8   -3523.5776467931      4.47E-06
    9   -3523.5776589000      1.84E-06
   10   -3523.5776621390      7.80E-07
   11   -3523.5776627984      4.19E-07
   12   -3523.5776630910      2.22E-07
   13   -3523.5776632488      1.47E-07
   14   -3523.5776633461      9.83E-08
   15   -3523.5776633907      4.76E-08
   16   -3523.5776634019      3.01E-08
   17   -3523.5776634046      1.32E-08
   18   -3523.5776634050      7.11E-09 Convergence criterion met
 ---------------------------------------
 SCF time:  CPU 8087.99 s  wall 1067.53 s
 SCF   energy in the final basis set = -3523.57766340
 Total energy in the final basis set = -3523.57766340

 CIS/TDDFT memory preview:
 --------------------------
	NOV = NOa*NVa + NOb*NVb = 771762
	NRoots = 12, max iter = 30, max vectors = 360
	Size of each subspace vector: 5.89 Mb
	Davidson algorithm may add up to 2 x NOV x NRoots (= 141.3 Mb) per iteration
	Max memory = 4239.4 Mb (worst case scenario)
	Currently available memory = 2000.0 Mb

	In case of problems:
	(a) increase memory (MEM_TOTAL = 4240 can hold 360 subspace vectors), or
	(b) request fewer states (CIS_N_ROOTS = 5 will fit in current MEM_TOTAL), or
	(c) reduce MAX_CIS_SUBSPACE (= 169 will fit in current MEM_TOTAL).
	Reducing MAX_CIS_SUBSPACE may hamper convergence.

 CIS energy converged when residual is below 10e- 6

 Direct TDDFT calculation will be performed
 Exchange:  wPBE + LR-HF      Correlation:  PBE
 Using SG-1 standard quadrature grid
 ---------------------------------------------------
 Iter    Rts Conv    Rts Left    Ttl Dev     Max Dev
 ---------------------------------------------------
   1         0          12      0.002335    0.000302
   2         0          12      0.000649    0.000081
   3         0          12      0.000583    0.000070
   4         0          12      0.000428    0.000047
   5         0          12      0.000331    0.000048
   6         0          12      0.000223    0.000033
   7         0          12      0.000220    0.000066
   8         0          12      0.000161    0.000037
   9         1          11      0.000097    0.000030
  10         2          10      0.000069    0.000018
  11         3           9      0.000068    0.000019
  12         3           9      0.000045    0.000015
  13         4           8      0.000041    0.000014
  14         6           6      0.000032    0.000013
  15         9           3      0.000020    0.000006
  16         9           3      0.000017    0.000006
  17         9           3      0.000012    0.000004
  18        11           1      0.000007    0.000002
  19        11           1      0.000007    0.000002
  20        12           0      0.000006    0.000001    Roots Converged
 ---------------------------------------------------
 
 ---------------------------------------------------
             TDDFT Excitation Energies              
 ---------------------------------------------------

 Excited state   1: excitation energy (eV) =    1.7187
 Total energy for state  1:                 -3523.51450052 au
    Multiplicity: Singlet 
    Trans. Mom.:  2.3849 X  -2.0269 Y  -1.1768 Z
    Strength   :     0.4708045142
    X: D(  293) --> V(    1) amplitude =  0.5562
    X: D(  293) --> V(    2) amplitude =  0.7742

 Excited state   2: excitation energy (eV) =    1.7304
 Total energy for state  2:                 -3523.51407145 au
    Multiplicity: Singlet 
    Trans. Mom.:  0.4955 X   2.0339 Y  -2.7087 Z
    Strength   :     0.4968412451
    X: D(  293) --> V(    1) amplitude =  0.7925
    X: D(  293) --> V(    2) amplitude = -0.5432

 Excited state   3: excitation energy (eV) =    3.4066
 Total energy for state  3:                 -3523.45247470 au
    Multiplicity: Singlet 
    Trans. Mom.: -1.0740 X   0.5879 Y  -0.8576 Z
    Strength   :     0.1864986745
    X: D(  289) --> V(    1) amplitude =  0.3474
    X: D(  290) --> V(    1) amplitude =  0.4186
    X: D(  292) --> V(    2) amplitude =  0.5370
    X: D(  293) --> V(    3) amplitude = -0.4501

 Excited state   4: excitation energy (eV) =    3.4485
 Total energy for state  4:                 -3523.45093303 au
    Multiplicity: Singlet 
    Trans. Mom.: -0.5395 X   2.0681 Y  -0.3624 Z
    Strength   :     0.3970472128
    X: D(  289) --> V(    1) amplitude =  0.6512
    X: D(  290) --> V(    1) amplitude = -0.2706
    X: D(  291) --> V(    2) amplitude = -0.3207
    X: D(  293) --> V(    3) amplitude =  0.2518

 Excited state   5: excitation energy (eV) =    3.5384
 Total energy for state  5:                 -3523.44762817 au
    Multiplicity: Singlet 
    Trans. Mom.:  0.5553 X   0.0005 Y  -0.1902 Z
    Strength   :     0.0298703853
    X: D(  287) --> V(    1) amplitude = -0.4528
    X: D(  290) --> V(    1) amplitude =  0.2744
    X: D(  292) --> V(    1) amplitude =  0.5684
    X: D(  292) --> V(    2) amplitude = -0.4538

 Excited state   6: excitation energy (eV) =    3.6430
 Total energy for state  6:                 -3523.44378694 au
    Multiplicity: Singlet 
    Trans. Mom.: -1.0812 X   0.7989 Y   0.9101 Z
    Strength   :     0.2352157729
    X: D(  287) --> V(    1) amplitude = -0.2540
    X: D(  288) --> V(    1) amplitude = -0.3193
    X: D(  289) --> V(    2) amplitude = -0.3174
    X: D(  291) --> V(    1) amplitude =  0.5972
    X: D(  291) --> V(    2) amplitude = -0.4428

 Excited state   7: excitation energy (eV) =    3.6762
 Total energy for state  7:                 -3523.44256469 au
    Multiplicity: Singlet 
    Trans. Mom.: -0.2736 X  -0.0010 Y   0.0017 Z
    Strength   :     0.0067424860
    X: D(  290) --> V(    1) amplitude =  0.6022
    X: D(  292) --> V(    1) amplitude = -0.5038
    X: D(  292) --> V(    2) amplitude = -0.4003

 Excited state   8: excitation energy (eV) =    3.7257
 Total energy for state  8:                 -3523.44074621 au
    Multiplicity: Singlet 
    Trans. Mom.: -0.0498 X  -0.1567 Y   0.3557 Z
    Strength   :     0.0140129051
    X: D(  286) --> V(    1) amplitude =  0.2668
    X: D(  288) --> V(    2) amplitude =  0.2640
    X: D(  289) --> V(    1) amplitude =  0.3165
    X: D(  291) --> V(    1) amplitude =  0.4634
    X: D(  291) --> V(    2) amplitude =  0.5308

 Excited state   9: excitation energy (eV) =    3.7923
 Total energy for state  9:                 -3523.43829861 au
    Multiplicity: Singlet 
    Trans. Mom.:  0.7244 X   0.0380 Y  -0.7882 Z
    Strength   :     0.1066226309
    X: D(  284) --> V(    1) amplitude = -0.3431
    X: D(  285) --> V(    1) amplitude =  0.4565
    X: D(  288) --> V(    1) amplitude =  0.6036

 Excited state  10: excitation energy (eV) =    3.8961
 Total energy for state 10:                 -3523.43448476 au
    Multiplicity: Singlet 
    Trans. Mom.:  0.1426 X  -0.0104 Y   0.0790 Z
    Strength   :     0.0025465680
    X: D(  287) --> V(    1) amplitude = -0.4091
    X: D(  292) --> V(    1) amplitude = -0.4324
    X: D(  292) --> V(    2) amplitude =  0.2839
    X: D(  293) --> V(    3) amplitude =  0.5050

 Excited state  11: excitation energy (eV) =    3.9176
 Total energy for state 11:                 -3523.43369529 au
    Multiplicity: Singlet 
    Trans. Mom.: -0.1553 X   0.0188 Y   0.3216 Z
    Strength   :     0.0122765422
    X: D(  283) --> V(    1) amplitude = -0.4239
    X: D(  287) --> V(    1) amplitude =  0.3970
    X: D(  290) --> V(    1) amplitude =  0.3314
    X: D(  292) --> V(    1) amplitude =  0.2869
    X: D(  293) --> V(    3) amplitude =  0.4791

 Excited state  12: excitation energy (eV) =    4.0212
 Total energy for state 12:                 -3523.42988562 au
    Multiplicity: Singlet 
    Trans. Mom.:  0.0842 X   0.4706 Y  -0.4947 Z
    Strength   :     0.0466230937
    X: D(  278) --> V(    1) amplitude = -0.2123
    X: D(  284) --> V(    2) amplitude = -0.4326
    X: D(  285) --> V(    2) amplitude =  0.3955
    X: D(  286) --> V(    1) amplitude = -0.3557
    X: D(  289) --> V(    2) amplitude =  0.4331
    X: D(  291) --> V(    2) amplitude = -0.2153
 
 ---------------------------------------------------
  SETman timing summary (seconds)
  CPU time             54128.12s
  System time              0.04s
  Wall time             7193.72s
 
 --------------------------------------------------------------
 
                    Orbital Energies (a.u.)
 --------------------------------------------------------------
 
 Alpha MOs
 -- Occupied --
-18.9580 -18.9571 -18.9544 -18.9486 -18.9484 -18.9419 -18.9260 -18.9231
-14.1976 -14.1968 -14.1578 -14.1578 -14.1565 -14.1549 -14.1433 -14.1428
-10.1409 -10.1393 -10.1393 -10.1381 -10.1262 -10.1255 -10.1226 -10.1217
-10.1213 -10.1208 -10.1206 -10.1204 -10.1201 -10.1182 -10.1086 -10.1052
-10.0837 -10.0821 -10.0807 -10.0795 -10.0748 -10.0728 -10.0723 -10.0722
-10.0717 -10.0711 -10.0602 -10.0597 -10.0586 -10.0579 -10.0496 -10.0490
-10.0482 -10.0475 -10.0444 -10.0441 -10.0434 -10.0420 -10.0419 -10.0409
-10.0251 -10.0244 -10.0230 -10.0227 -10.0202 -10.0170 -10.0160 -10.0128
-10.0127 -10.0116 -10.0107 -10.0089 -10.0085 -10.0084 -10.0072 -10.0056
-10.0009 -10.0008 -10.0007 -10.0002 -10.0001  -9.9968  -9.9915  -9.9913
 -1.1540  -1.1409  -1.1409  -1.1390  -1.1369  -1.1369  -1.1347  -1.1139
 -1.1083  -1.1046  -1.0629  -1.0462  -1.0235  -0.9880  -0.9811  -0.9613
 -0.9605  -0.9567  -0.9500  -0.9434  -0.9411  -0.9404  -0.9386  -0.9343
 -0.9262  -0.9230  -0.9201  -0.9137  -0.8850  -0.8823  -0.8779  -0.8763
 -0.8733  -0.8664  -0.8594  -0.8589  -0.8569  -0.8520  -0.8475  -0.8452
 -0.8364  -0.8228  -0.8182  -0.8170  -0.8039  -0.7881  -0.7856  -0.7833
 -0.7764  -0.7687  -0.7662  -0.7639  -0.7630  -0.7528  -0.7489  -0.7458
 -0.7417  -0.7286  -0.7203  -0.7189  -0.7154  -0.7122  -0.7103  -0.7091
 -0.7072  -0.7060  -0.7003  -0.6958  -0.6936  -0.6923  -0.6890  -0.6839
 -0.6767  -0.6679  -0.6645  -0.6509  -0.6436  -0.6376  -0.6343  -0.6332
 -0.6292  -0.6278  -0.6259  -0.6238  -0.6211  -0.6190  -0.6167  -0.6124
 -0.6105  -0.6103  -0.6054  -0.5963  -0.5905  -0.5858  -0.5840  -0.5811
 -0.5807  -0.5775  -0.5760  -0.5740  -0.5734  -0.5694  -0.5689  -0.5667
 -0.5650  -0.5634  -0.5626  -0.5607  -0.5589  -0.5582  -0.5552  -0.5541
 -0.5525  -0.5520  -0.5508  -0.5463  -0.5441  -0.5420  -0.5385  -0.5363
 -0.5322  -0.5307  -0.5272  -0.5216  -0.5198  -0.5151  -0.5133  -0.5114
 -0.5085  -0.5051  -0.5032  -0.5026  -0.5023  -0.5003  -0.4986  -0.4963
 -0.4959  -0.4932  -0.4916  -0.4907  -0.4897  -0.4886  -0.4866  -0.4864
 -0.4844  -0.4792  -0.4758  -0.4746  -0.4714  -0.4706  -0.4690  -0.4672
 -0.4645  -0.4619  -0.4578  -0.4561  -0.4546  -0.4487  -0.4462  -0.4433
 -0.4421  -0.4405  -0.4378  -0.4355  -0.4341  -0.4329  -0.4298  -0.4297
 -0.4270  -0.4261  -0.4240  -0.4238  -0.4228  -0.4221  -0.4206  -0.4201
 -0.4183  -0.4181  -0.4144  -0.4111  -0.4096  -0.4084  -0.4052  -0.4023
 -0.4004  -0.3984  -0.3969  -0.3946  -0.3915  -0.3895  -0.3865  -0.3780
 -0.3768  -0.3739  -0.3712  -0.3691  -0.3652  -0.3594  -0.3451  -0.3433
 -0.3398  -0.3364  -0.3353  -0.3303  -0.3244  -0.3219  -0.3170  -0.3022
 -0.2989  -0.2856  -0.2799  -0.2759  -0.2054
 -- Virtual --
 -0.0411  -0.0343   0.0402   0.0686   0.0824   0.0857   0.0899   0.1154
  0.1232   0.1255   0.1540   0.1547   0.1620   0.1630   0.1658   0.1767
[...]
  1.3235   1.3280   1.3292   1.3302   1.3318   1.3357   1.3400   1.3428
  1.3464   1.3492   1.3511   1.3529   1.3549   1.3553   1.3564   1.3620
  1.3637   1.3660   1.3726   1.3746   1.3781   1.3854   1.3874   1.3937
  1.3975   1.3983   1.4022   1.4076   1.4106   1.4141   1.4163   1.4182
  1.4191   1.4202   1.4234   1.4266   1.4292   1.4304   1.4344   1.4370
  1.4384   1.4427   1.4450   1.4468   1.4513   1.4582   1.4618   1.4664
  1.4671   1.4706   1.4719   1.4772   1.4795   1.4805   1.4825   1.4875
  1.4925   1.4944   1.4995   1.5026   1.5041   1.5070   1.5104   1.5156
  1.5165   1.5227   1.5247   1.5272   1.5282   1.5323   1.5344   1.5368
  1.5395   1.5471   1.5498   1.5507   1.5530   1.5591   1.5633   1.5662
  1.5688   1.5782   1.5830   1.5887   1.5939   1.5980   1.6013   1.6046
  1.6072   1.6078   1.6108   1.6114   1.6183   1.6231   1.6345   1.6388
  1.6485   1.6500   1.6539   1.6629   1.6664   1.6725   1.6783   1.6790
  1.6889   1.6939   1.6964   1.7024   1.7085   1.7120   1.7150   1.7191
  1.7217   1.7238   1.7253   1.7300   1.7323   1.7360   1.7373   1.7380
  1.7413   1.7432   1.7455   1.7503   1.7564   1.7589   1.7629   1.7654
  1.7665   1.7702   1.7730   1.7786   1.7836   1.7857   1.7885   1.7921
  1.7952   1.7990   1.8000   1.8023   1.8039   1.8066   1.8068   1.8091
  1.8127   1.8150   1.8190   1.8194   1.8200   1.8230   1.8248   1.8257
  1.8312   1.8346   1.8367   1.8405   1.8413   1.8427   1.8467   1.8489
  1.8555   1.8586   1.8621   1.8647   1.8707   1.8765   1.8785   1.8819
  1.8844   1.8849   1.8911   1.8937   1.8976   1.9028   1.9046   1.9099
  1.9173   1.9224   1.9244   1.9296   1.9330   1.9444   1.9469   1.9493
  1.9518   1.9539   1.9598   1.9610   1.9650   1.9699   1.9784   1.9800
  1.9826   1.9851   1.9886   1.9916   1.9934   1.9957   1.9981   1.9985
  2.0014   2.0042   2.0061   2.0079   2.0125   2.0173   2.0211   2.0228
  2.0246   2.0256   2.0308   2.0339   2.0363   2.0394   2.0403   2.0414
  2.0454   2.0479   2.0486   2.0567   2.0600   2.0619   2.0667   2.0679
  2.0706   2.0720   2.0775   2.0793   2.0820   2.0830   2.0865   2.0881
  2.0904   2.0911   2.0943   2.0950   2.0978   2.0991   2.1012   2.1090
  2.1100   2.1137   2.1177   2.1209   2.1284   2.1310   2.1359   2.1416
  2.1423   2.1455   2.1519   2.1537   2.1573   2.1599   2.1634   2.1661
  2.1692   2.1740   2.1800   2.1818   2.1842   2.1878   2.1937   2.1955
  2.1976   2.1985   2.2004   2.2008   2.2015   2.2026   2.2049   2.2066
  2.2071   2.2074   2.2080   2.2105   2.2112   2.2154   2.2177   2.2266
  2.2316   2.2427   2.2490   2.2578   2.2651   2.2720   2.2753   2.2773
  2.2830   2.2951   2.3017   2.3054   2.3066   2.3150   2.3162   2.3182
  2.3196   2.3219   2.3222   2.3248   2.3264   2.3291   2.3312   2.3317
  2.3334   2.3345   2.3369   2.3387   2.3397   2.3425   2.3447   2.3484
  2.3493   2.3531   2.3544   2.3553   2.3561   2.3598   2.3615   2.3638
  2.3667   2.3673   2.3680   2.3702   2.3711   2.3721   2.3732   2.3744
  2.3746   2.3749   2.3762   2.3777   2.3782   2.3806   2.3829   2.3845
  2.3894   2.3908   2.3925   2.3938   2.3974   2.4014   2.4021   2.4037
  2.4071   2.4083   2.4091   2.4128   2.4137   2.4161   2.4187   2.4204
  2.4220   2.4272   2.4288   2.4308   2.4342   2.4345   2.4387   2.4395
  2.4407   2.4441   2.4462   2.4469   2.4482   2.4488   2.4506   2.4556
  2.4571   2.4605   2.4617   2.4644   2.4648   2.4688   2.4744   2.4772
  2.4782   2.4841   2.4848   2.4860   2.4874   2.4901   2.4945   2.4945
  2.4968   2.4972   2.4986   2.4992   2.5036   2.5060   2.5074   2.5086
  2.5098   2.5133   2.5186   2.5212   2.5232   2.5256   2.5267   2.5303
  2.5310   2.5315   2.5324   2.5346   2.5363   2.5392   2.5421   2.5437
  2.5450   2.5462   2.5487   2.5501   2.5549   2.5579   2.5613   2.5660
  2.5685   2.5802   2.5812   2.5816   2.5874   2.5890   2.5935   2.5942
  2.5998   2.6046   2.6100   2.6120   2.6154   2.6163   2.6209   2.6274
  2.6335   2.6343   2.6354   2.6389   2.6408   2.6477   2.6503   2.6524
  2.6557   2.6612   2.6625   2.6634   2.6654   2.6684   2.6707   2.6761
  2.6775   2.6790   2.6833   2.6839   2.6883   2.6896   2.6915   2.6935
  2.6969   2.6982   2.7025   2.7050   2.7100   2.7119   2.7188   2.7223
  2.7271   2.7284   2.7296   2.7306   2.7315   2.7355   2.7406   2.7481
  2.7505   2.7528   2.7590   2.7606   2.7674   2.7698   2.7727   2.7759
  2.7793   2.7807   2.7837   2.7892   2.7911   2.7956   2.8000   2.8051
  2.8062   2.8088   2.8160   2.8183   2.8198   2.8214   2.8251   2.8270
  2.8313   2.8364   2.8480   2.8494   2.8565   2.8594   2.8683   2.8688
  2.8729   2.8758   2.8807   2.8849   2.8868   2.8902   2.8940   2.8968
  2.8972   2.8998   2.9026   2.9053   2.9078   2.9124   2.9171   2.9199
  2.9255   2.9271   2.9330   2.9384   2.9437   2.9448   2.9496   2.9512
  2.9525   2.9558   2.9574   2.9581   2.9591   2.9630   2.9653   2.9657
  2.9707   2.9732   2.9796   2.9852   2.9883   2.9897   2.9988   3.0035
  3.0061   3.0131   3.0233   3.0271   3.0328   3.0388   3.0425   3.0449
  3.0527   3.0536   3.0590   3.0632   3.0659   3.0687   3.0700   3.0729
  3.0777   3.0877   3.0941   3.1001   3.1018   3.1069   3.1071   3.1123
  3.1218   3.1288   3.1365   3.1390   3.1437   3.1466   3.1552   3.1572
  3.1679   3.1733   3.1765   3.1811   3.1828   3.1892   3.1925   3.1934
  3.1978   3.2001   3.2017   3.2029   3.2038   3.2075   3.2092   3.2131
  3.2168   3.2191   3.2334   3.2345   3.2355   3.2419   3.2474   3.2508
  3.2627   3.2691   3.2706   3.2736   3.2801   3.2845   3.2872   3.2886
  3.2896   3.2953   3.2963   3.2984   3.3001   3.3031   3.3044   3.3085
  3.3148   3.3164   3.3203   3.3258   3.3283   3.3317   3.3361   3.3383
  3.3398   3.3448   3.3513   3.3581   3.3653   3.3705   3.3750   3.3961
  3.3984   3.4058   3.4080   3.4154   3.4202   3.4290   3.4418   3.4501
  3.4593   3.4614   3.4755   3.5393   3.5778   3.6416   3.6568   3.6682
  3.6695   3.6834   3.6838   3.6853   3.6877   3.6929   3.7016   3.7026
  3.7041   3.7119   3.7250   3.7320   3.7335   3.7375   3.7396   3.7420
  3.7458   3.7495   3.7514   3.7597   3.7623   3.7637   3.7724   3.7725
  3.7737   3.7846   3.7847   3.7945   3.7957   3.7966   3.7997   3.8017
  3.8019   3.8082   3.8095   3.8214   3.8225   3.8251   3.8298   3.8318
  3.8320   3.8324   3.8330   3.8342   3.8348   3.8356   3.8368   3.8377
  3.8460   3.8488   3.8684   3.8717   3.8752   3.8763   3.8963   3.9311
  3.9347   3.9361   3.9408   3.9463   3.9475   3.9580   3.9602   3.9689
  3.9703   3.9760   3.9799   3.9810   3.9898   3.9932   3.9959   4.0282
  4.0370   4.0472   4.0593   4.0623   4.0691   4.0794   4.1013   4.1043
  4.1124   4.1221   4.1247   4.1321   4.1386   4.1833   4.1871   4.1903
  4.1998   4.2108   4.2154   4.2177   4.2200   4.2223   4.2288   4.2300
  4.2440   4.2792   4.2856   4.2983   4.3142   4.3304   4.3448   4.3633
  4.3674   4.3745   4.3864   4.4038   4.4115   4.4145   4.4183   4.4251
  4.4343   4.4394   4.4556   4.4582   4.4722   4.5257   4.5290   4.5378
  4.5468   4.5498   4.5514   4.5547   4.5625   4.5702   4.5772   4.5803
  4.5943   4.6027   4.6036   4.6255   4.6404   4.6425   4.6658   4.6728
  4.6765   4.6830   4.6865   4.6886   4.6907   4.7025   4.7036   4.7098
  4.7193   4.7375   4.7430   4.7556   4.7591   4.7828   4.7912   4.8285
  4.8410   4.8527   4.8565   4.8635   4.8712   4.8729   4.9236   4.9536
  4.9658   5.0727   5.0842   5.0914   5.1012
 --------------------------------------------------------------
 
          Ground-State Mulliken Net Atomic Charges

     Atom                 Charge (a.u.)
  ----------------------------------------
      1 N                    -0.624197
      2 O                    -0.507772
      3 O                    -0.508591
      4 N                    -0.520294
      5 H                     0.247946
      6 N                    -0.490416
      7 O                    -0.503336
      8 N                    -0.525291
      9 H                     0.250081
     10 N                    -0.473762
     11 N                    -0.620289
     12 O                    -0.534475
     13 O                    -0.490226
     14 O                    -0.501099
     15 O                    -0.494177
     16 O                    -0.491038
     17 N                    -0.470291
     18 N                    -0.492004
     19 C                     0.421379
     20 C                     0.479329
     21 C                    -0.027657
     22 C                    -0.040309
     23 C                     0.426910
     24 C                     0.492195
     25 C                    -0.031396
     26 C                     0.032846
     27 C                    -0.046864
     28 C                     0.420114
     29 C                     0.492009
     30 C                     0.421724
     31 C                     0.297808
     32 C                     0.287848
     33 C                    -0.017780
     34 C                     0.284997
     35 C                     0.025255
     36 H                     0.121624
     37 H                     0.119580
     38 C                     0.297993
     39 C                     0.497202
     40 C                    -0.016508
     41 C                     0.033508
     42 C                     0.279403
     43 C                    -0.103883
     44 H                     0.076876
     45 C                    -0.115200
     46 H                     0.077742
     47 C                     0.219115
     48 C                    -0.107609
     49 H                     0.077729
     50 C                    -0.115709
     51 H                     0.077648
     52 C                     0.273748
     53 C                    -0.258699
     54 H                     0.156776
     55 H                     0.135339
     56 C                     0.225584
     57 C                     0.022951
     58 H                     0.119026
     59 H                     0.118538
     60 C                    -0.084274
     61 H                     0.077483
     62 C                     0.028645
     63 H                     0.116551
     64 H                     0.117552
     65 C                     0.040108
     66 H                     0.110791
     67 H                     0.117202
     68 C                    -0.114620
     69 H                     0.077589
     70 C                    -0.084312
     71 H                     0.079078
     72 C                    -0.115469
     73 H                     0.078859
     74 C                    -0.255055
     75 H                     0.146675
     76 H                     0.133972
     77 C                     0.048364
     78 H                     0.105000
     79 H                     0.115094
     80 C                    -0.256653
     81 H                     0.134446
     82 H                     0.136529
     83 C                    -0.263783
     84 H                     0.122091
     85 H                     0.119909
     86 C                    -0.259217
     87 H                     0.141290
     88 H                     0.135363
     89 C                    -0.260994
     90 H                     0.127766
     91 H                     0.121970
     92 C                     0.070462
     93 H                     0.093782
     94 H                     0.125141
     95 C                    -0.262241
     96 H                     0.147409
     97 H                     0.129500
     98 C                    -0.263297
     99 H                     0.123014
    100 H                     0.120980
    101 C                     0.043483
    102 H                     0.104195
    103 H                     0.107465
    104 C                    -0.256144
    105 H                     0.119169
    106 H                     0.119073
    107 C                    -0.249176
    108 H                     0.113175
    109 H                     0.113518
    110 C                    -0.237058
    111 H                     0.114850
    112 H                     0.116049
    113 C                    -0.356862
    114 H                     0.123833
    115 H                     0.129200
    116 H                     0.123312
    117 C                    -0.252872
    118 H                     0.119037
    119 H                     0.115031
    120 C                    -0.251508
    121 H                     0.136966
    122 H                     0.151378
    123 C                    -0.355936
    124 H                     0.127274
    125 H                     0.130986
    126 H                     0.125901
    127 C                     0.070953
    128 H                     0.105059
    129 H                     0.074722
    130 C                    -0.249961
    131 H                     0.107788
    132 H                     0.117716
    133 C                    -0.344965
    134 H                     0.122611
    135 H                     0.124954
    136 H                     0.117556
    137 C                    -0.355348
    138 H                     0.122478
    139 H                     0.131689
    140 H                     0.128651
    141 C                    -0.361233
    142 H                     0.122059
    143 H                     0.134856
    144 H                     0.129337
    145 C                    -0.251702
    146 H                     0.115409
    147 H                     0.117817
    148 C                    -0.356999
    149 H                     0.126939
    150 H                     0.131213
    151 H                     0.125714
    152 C                    -0.251213
    153 H                     0.112650
    154 H                     0.130556
    155 C                    -0.367870
    156 H                     0.123504
    157 H                     0.122347
    158 H                     0.125304
    159 C                    -0.338635
    160 H                     0.124782
    161 H                     0.117397
    162 H                     0.114876
  ----------------------------------------
  Sum of atomic charges =     0.000000

 -----------------------------------------------------------------
                    Cartesian Multipole Moments
 -----------------------------------------------------------------
    Charge (ESU x 10^10)
                 0.0000
    Dipole Moment (Debye)
         X       0.1531      Y      -0.7235      Z       1.0459
       Tot       1.2809
    Quadrupole Moments (Debye-Ang)
        XX    -418.4343     XY     -41.1612     YY    -443.6832
        XZ      37.7665     YZ       3.1198     ZZ    -382.9415
    Octopole Moments (Debye-Ang^2)
       XXX  -44676.5788    XXY  -19928.3541    XYY  -17160.4634
       YYY  -51433.4884    XXZ   -4937.8138    XYZ    -212.7766
       YYZ   -7195.7418    XZZ  -13465.4197    YZZ  -17016.8435
       ZZZ  -17772.2431
    Hexadecapole Moments (Debye-Ang^3)
      XXXX ************   XXXY ************   XXYY ************
      XYYY ************   YYYY ************   XXXZ -606833.6139
      XXYZ -279616.3570   XYYZ -278934.9106   YYYZ -830046.7763
      XXZZ -578656.2711   XYZZ -601364.4390   YYZZ -850129.8168
      XZZZ -616564.6049   YZZZ -757646.7850   ZZZZ -577924.5836
 -----------------------------------------------------------------
 Total job time:  8225.89s(wall), 61719.01s(cpu) 
 Tue Feb 11 07:02:20 2025

        *************************************************************
        *                                                           *
        *  Thank you very much for using Q-Chem.  Have a nice day.  *
        *                                                           *
        *************************************************************


Copy Fragment Subsystem from /scratch/sanghita/qchem145414/Frg2s1/
Copy MO Coefficient from /scratch/sanghita/qchem145414/Frg2s1/
Alpha electrons: 293
 Beta electrons: 293
Copy Set Amplitude from /scratch/sanghita/qchem145414/Frg2s1/

Total alpha electrons: 586
Total  beta electrons: 586

-----------------------------------------------------------------
 Done with SCF on isolated fragments
-----------------------------------------------------------------

-----------------------------------------------------------------
 Start with Direct Coulomb-Exchange Integration 
-----------------------------------------------------------------

 RPA/TDDFT Excited States --
 Donor    : State 1 to 6
 Acceptor : State 1 to 6
                                              Dipole-Dipole
              Coulomb (eV)    Exchange (eV)  Interaction (eV)
           ---------------  ---------------  ---------------
 ( 1, 1):    0.00099689173                0    0.00102590652
 ( 1, 2):    0.00017047057                0   6.30829336E-05
 ( 1, 3):  -0.000365958044                0  -0.000256824891
 ( 1, 4):  -0.000275480917                0  -0.000437205422
 ( 1, 5):    0.00020850539                0    0.00014965222
 ( 1, 6):  -0.000459928427                0  -0.000485460822
 ( 2, 1):  -3.29884956E-05                0   6.30915883E-05
 ( 2, 2):   0.000141998672                0    8.8706094E-05
 ( 2, 3):   0.000390102009                0   0.000388180225
 ( 2, 4):  -0.000119975453                0  -0.000210393937
 ( 2, 5):  -0.000163418353                0  -0.000109677401
 ( 2, 6):  -3.97620124E-05                0  -9.60666836E-05
 ( 3, 1):  -0.000127595041                0  -0.000256821775
 ( 3, 2):   0.000361113201                0    0.00038818204
 ( 3, 3):   0.000174090487                0   0.000192290279
 ( 3, 4):   0.000185579925                0    0.00026979891
 ( 3, 5):  -2.44035676E-05                0  -1.88073189E-05
 ( 3, 6):   5.24070671E-06                0   7.46574272E-05
 ( 4, 1):  -0.000563488998                0  -0.000437207044
 ( 4, 2):  -0.000229750294                0  -0.000210391001
 ( 4, 3):   0.000350756589                0   0.000269799056
 ( 4, 4):  -3.79868064E-06                0  -1.23512054E-05
 ( 4, 5):  -0.000208367148                0  -0.000143401343
 ( 4, 6):   0.000258926172                0   0.000195517717
 ( 5, 1):   8.29154557E-05                0   0.000149651853
 ( 5, 2):  -2.75875591E-05                0   -0.00010967828
 ( 5, 3):  -6.17885862E-06                0  -1.88077577E-05
 ( 5, 4):  -6.14328481E-05                0  -0.000143401146
 ( 5, 5):  -1.19959513E-06                0  -2.00085228E-06
 ( 5, 6):  -3.74903117E-05                0  -6.54417221E-05
 ( 6, 1):  -0.000495172868                0  -0.000485460965
 ( 6, 2):  -0.000167680456                0  -9.60629272E-05
 ( 6, 3):   0.000146997691                0   7.46571753E-05
 ( 6, 4):      0.000108432                0   0.000195517483
 ( 6, 5):  -0.000101580883                0  -6.54414002E-05
 ( 6, 6):   0.000241131407                0    0.00024127394
--------------------------------------------------------------
 DC time:  CPU 13059.17 s  wall 1691.92 s


 CIS/TDDFT memory preview:
 --------------------------
	NOV = NOa*NVa + NOb*NVb = 3087048
	NRoots = 12, max iter = 30, max vectors = 360
	Size of each subspace vector: 23.55 Mb
	Davidson algorithm may add up to 2 x NOV x NRoots (= 565.3 Mb) per iteration
	Max memory = 16957.7 Mb (worst case scenario)
	Currently available memory = 2000.0 Mb

	In case of problems:
	(a) increase memory (MEM_TOTAL = 16958 can hold 360 subspace vectors), or
	(b) request fewer states (CIS_N_ROOTS = 1 will fit in current MEM_TOTAL), or
	(c) reduce MAX_CIS_SUBSPACE (= 42 will fit in current MEM_TOTAL).
	Reducing MAX_CIS_SUBSPACE may hamper convergence.

 CIS energy converged when residual is below 10e- 6
  Skipping CIS/RPA calculation, including relax
  Going directly to Wavefunction Analysis
 No wavefunction analysis requested
 Total job time:  18216.18s(wall), 13096.78s(cpu) 
 Tue Feb 11 07:30:44 2025

        *************************************************************
        *                                                           *
        *  Thank you very much for using Q-Chem.  Have a nice day.  *
        *                                                           *
        *************************************************************


