                  Welcome to Q-Chem
     A Quantum Leap Into The Future Of Chemistry


 Q-Chem 6.1 (devel), Q-Chem, Inc., Pleasanton, CA (2022)

 E. Epifanovsky,  A. T. B. Gilbert,  Xintian Feng,  Joonho Lee,  Yuezhi Mao,  
 N. Mardirossian,  P. Pokhilko,  A. White,  M. Wormit,  M. P. Coons,  
 A. L. Dempwolff,  Zhengting Gan,  D. Hait,  P. R. Horn,  L. D. Jacobson,  
 I. Kaliman,  J. Kussmann,  A. W. Lange,  Ka Un Lao,  D. S. Levine,  Jie Liu,  
 S. C. McKenzie,  A. F. Morrison,  K. Nanda,  F. Plasser,  D. R. Rehn,  
 M. L. Vidal,  Zhi-Qiang You,  Ying Zhu,  B. Alam,  B. Albrecht,  
 A. Aldossary,  E. Alguire,  J. H. Andersen,  V. Athavale,  D. Barton,  
 K. Begam,  A. Behn,  N. Bellonzi,  Y. A. Bernard,  E. J. Berquist,  
 H. Burton,  A. Carreras,  K. Carter-Fenk,  Mathew Chow,  Romit Chakraborty,  
 Chandrima Chakravarty,  Junhan Chen,  A. D. Chien,  K. D. Closser,  
 V. Cofer-Shabica,  L. Cunha,  S. Dasgupta,  Jia Deng,  M. de Wergifosse,  
 M. Diedenhofen,  Hainam Do,  S. Ehlert,  Po-Tung Fang,  S. Fatehi,  
 Qingguo Feng,  T. Friedhoff,  Thomas Froitzheim,  B. Ganoe,  J. Gayvert,  
 Qinghui Ge,  G. Gidofalvi,  M. Goldey,  Montgomery Gray,  J. Gomes,  
 C. Gonzalez-Espinoza,  S. Gulania,  A. Gunina,  J. A. Gyamfi,  
 M. W. D. Hanson-Heine,  P. H. P. Harbach,  A. W. Hauser,  M. F. Herbst,  
 M. Hernandez Vera,  M. Hodecker,  Z. C. Holden,  S. Houck,  Xunkun Huang,  
 Kerwin Hui,  B. C. Huynh,  K. Ikeda,  M. Ivanov,  Hyunjun Ji,  Zuxin Jin,  
 Hanjie Jiang,  Subrata Jana,  B. Kaduk,  S. Kaehler,  R. Kang,  
 K. Khistyaev,  Jaehoon Kim,  Yongbin Kim,  P. Klunzinger,  Z. Koczor-Benda,  
 Joong Hoon Koh,  D. Kosenkov,  Saikiran Kotaru,  L. Koulias,  T. Kowalczyk,  
 C. M. Krauter,  K. Kue,  A. Kunitsa,  T. Kus,  A. Landau,  K. V. Lawler,  
 D. Lefrancois,  S. Lehtola,  Rain Li,  Shaozhi Li,  Yi-Pei Li,  
 Jiashu Liang,  M. Liebenthal,  Hung-Hsuan Lin,  You-Sheng Lin,  Fenglai Liu,  
 Kuan-Yu Liu,  M. Loipersberger,  A. Luenser,  C. Malbon,  A. Manjanath,  
 P. Manohar,  E. Mansoor,  S. F. Manzer,  Shan-Ping Mao,  A. V. Marenich,  
 T. Markovich,  S. Mason,  F. Matz,  S. A. Maurer,  P. F. McLaughlin,  
 M. F. S. J. Menger,  J.-M. Mewes,  S. A. Mewes,  P. Morgante,  
 Mohammad Mostafanejad,  J. W. Mullinax,  K. J. Oosterbaan,  G. Paran,  
 V. Parravicini,  Alexander C. Paul,  Suranjan K. Paul,  F. Pavosevic,  
 Zheng Pei,  S. Prager,  E. I. Proynov,  E. Ramos,  B. Rana,  A. E. Rask,  
 A. Rettig,  R. M. Richard,  F. Rob,  E. Rossomme,  T. Scheele,  M. Scheurer,  
 M. Schneider,  P. E. Schneider,  N. Sergueev,  S. M. Sharada,  
 Hengyuan Shen,  W. Skomorowski,  D. W. Small,  C. J. Stein,  Yingli Su,  
 Yu-Chuan Su,  E. J. Sundstrom,  Zhen Tao,  J. Thirman,  Hung-Yi Tsai,  
 T. Tsuchimochi,  N. M. Tubman,  C. Utku,  S. P. Veccham,  O. Vydrov,  
 J. Wenzel,  Jonathan Wong,  J. Witte,  A. Yamada,  Chou-Hsun Yang,  Kun Yao,  
 S. Yeganeh,  S. R. Yost,  A. Zech,  F. Zeller,  Igor Ying Zhang,  
 Xing Zhang,  Yu Zhang,  D. Zuev,  A. Aspuru-Guzik,  A. T. Bell,  
 N. A. Besley,  K. B. Bravaya,  B. R. Brooks,  D. Casanova,  Jeng-Da Chai,  
 Hsing-Ta Chen,  S. Coriani,  C. J. Cramer,  A. E. DePrince, III,  
 R. A. DiStasio Jr.,  A. Dreuw,  B. D. Dunietz,  T. R. Furlani,  
 W. A. Goddard III,  S. Grimme,  S. Hammes-Schiffer,  T. Head-Gordon,  
 W. J. Hehre,  Chao-Ping Hsu,  T.-C. Jagau,  Yousung Jung,  A. Klamt,  
 Jing Kong,  D. S. Lambrecht,  Xiangyuan Li,  WanZhen Liang,  N. J. Mayhall,  
 C. W. McCurdy,  J. B. Neaton,  T. Neudecker,  C. Ochsenfeld,  
 J. A. Parkhill,  R. Peverati,  V. A. Rassolov,  Haisheng Ren,  Yihan Shao,  
 L. V. Slipchenko,  R. P. Steele,  J. E. Subotnik,  A. J. W. Thom,  
 A. Tkatchenko,  D. G. Truhlar,  T. Van Voorhis,  Fan Wang,  
 T. A. Wesolowski,  K. B. Whaley,  H. L. Woodcock III,  P. M. Zimmerman,  
 S. Faraji,  P. M. W. Gill,  M. Head-Gordon,  J. M. Herbert,  A. I. Krylov

 Contributors to earlier versions of Q-Chem not listed above: 
 R. D. Adamson,  B. Austin,  R. Baer,  J. Baker,  G. J. O. Beran,  
 K. Brandhorst,  S. T. Brown,  E. F. C. Byrd,  Arup K. Chakraborty,  
 G. K. L. Chan,  Chun-Min Chang,  Yunqing Chen,  C.-L. Cheng,  
 Siu Hung Chien,  D. M. Chipman,  D. L. Crittenden,  H. Dachsel,  
 R. J. Doerksen,  A. D. Dutoi,  R. G. Edgar,  J. Fosso-Tande,  
 L. Fusti-Molnar,  D. Ghosh,  A. Ghysels,  A. Golubeva-Zadorozhnaya,  
 J. Gonthier,  M. S. Gordon,  S. R. Gwaltney,  G. Hawkins,  J. E. Herr,  
 A. Heyden,  S. Hirata,  E. G. Hohenstein,  G. Kedziora,  F. J. Keil,  
 C. Kelley,  Jihan Kim,  R. A. King,  R. Z. Khaliullin,  P. P. Korambath,  
 W. Kurlancheek,  A. Laurent,  A. M. Lee,  M. S. Lee,  S. V. Levchenko,  
 Ching Yeh Lin,  D. Liotard,  E. Livshits,  R. C. Lochan,  I. Lotan,  
 L. A. Martinez-Martinez,  P. E. Maslen,  N. Nair,  D. P. O'Neill,  
 D. Neuhauser,  E. Neuscamman,  C. M. Oana,  R. Olivares-Amaya,  R. Olson,  
 T. M. Perrine,  B. Peters,  P. A. Pieniazek,  A. Prociuk,  Y. M. Rhee,  
 J. Ritchie,  M. A. Rohrdanz,  E. Rosta,  N. J. Russ,  H. F. Schaefer III,  
 M. W. Schmidt,  N. E. Schultz,  S. Sharma,  N. Shenvi,  C. D. Sherrill,  
 A. C. Simmonett,  A. Sodt,  T. Stein,  D. Stuck,  K. S. Thanthiriwatte,  
 V. Vanovschi,  L. Vogt,  Tao Wang,  A. Warshel,  M. A. Watson,  
 C. F. Williams,  Q. Wu,  X. Xu,  Jun Yang,  W. Zhang,  Yan Zhao

   Please cite Q-Chem as follows:
  "Software for the frontiers of quantum chemistry:
   An overview of developments in the Q-Chem 5 package"
   J. Chem. Phys. 155, 084801 (2021)
   https://doi.org/10.1063/5.0055522 (open access)

 Q-Chem 6.1.0 for Intel X86 EM64T Linux

 Parts of Q-Chem use Armadillo 9.900.5 (Nocturnal Misbehaviour).
 http://arma.sourceforge.net/

 Q-Chem begins on Sat Feb 15 18:10:27 2025  

 Host: n103.cluster
0

     Scratch files written to /scratch/sanghita/qchem10181//
 Processing $rem in /home/chance/software/ccats2023/config/preferences:
 Processing $rem in /home/sanghita/.qchemrc:

 Checking the input file for inconsistencies... 	...done.

--------------------------------------------------------------
User input:
--------------------------------------------------------------
$molecule
0 1
--
0 1
N   14.0720775   14.4772325   13.2163359
O    9.7109512   18.5476720   16.9529985
O   12.6699426   19.5523330   12.3564035
N   14.1978809   12.5091885   15.1593425
H   13.6499394   13.1366178   14.9463288
N   10.6968001   15.7849540   16.5189328
O   17.7504349   10.6360029   13.6758024
N   12.1814359   15.9435682   14.6317116
H   12.5053443   15.1481361   14.6714205
N   13.1221249   11.7865154   17.1941461
N   12.1227943   13.8442504   16.4446593
O   16.4108133   12.1313491   10.2097075
O   15.1190570   10.0272714   18.5288177
O   11.1290189   10.3657151   18.8545277
O    8.2990082   15.1419389   18.2749697
O   13.5562040   16.9047300    9.6341685
N   13.1459147   16.6060343   12.5358173
N   15.4965237   12.5285272   13.1505830
C   11.0143706   14.5319951   16.8417490
C   14.1170956   11.7921351   16.3321237
C   15.9650751   11.1214508   15.1360316
C   11.0953689   17.8358760   15.1810458
C   14.8723675   13.5645586   12.5930497
C   12.4922182   16.8341150   13.6409164
C   11.8319416   18.0811204   14.0187143
C   10.2214631   13.7490278   17.7741864
C   15.2977586   10.9475056   16.3546309
C   13.7878495   15.4471905   12.3009395
C   11.3070969   16.4441565   15.5508055
C   12.1288558   12.6755315   17.1472027
C   15.7878894   10.0968648   17.3722738
C   11.8793668   19.3617450   13.4496060
C   10.9226761   12.5554385   17.9638892
C   17.1459011   10.4155106   14.8643386
C    8.9442376   19.5584112   17.6118137
H    9.4508233   20.3839259   17.6632585
H    8.1255381   19.7310394   17.1214803
C   10.3528342   18.8531819   15.7951684
C   15.2363235   12.1179618   14.3756128
C   14.3593810   15.1246861   11.0045300
C   15.0539669   13.9171689   11.1762271
C   10.4278783   11.5483961   18.7950447
C   11.1261322   20.3329703   14.0524750
H   11.1215417   21.1866756   13.6859306
C   16.9661325    9.4174721   17.0587819
H   17.3312499    8.8448704   17.6938039
C   15.7139749   13.3261514   10.1105154
C   17.5980982    9.5544504   15.8707280
H   18.3676159    9.0557279   15.7163935
C   10.3763483   20.0885228   15.1826535
H    9.8702941   20.7785556   15.5427672
C   14.3384859   15.7631269    9.7584399
C    8.6321772   19.0697299   18.9670633
H    8.2624313   18.1755258   18.8979343
H    9.4568811   19.0078014   19.4734733
C    9.0115299   13.9744433   18.4301079
C   18.9503624    9.9285128   13.3515393
H   19.5718897    9.9701792   14.0942739
H   18.7477221    8.9961052   13.1746977
C    8.5615626   12.9870674   19.2757322
H    7.7659346   13.1239969   19.7387356
C   10.7456831    9.4004821   19.7917881
H   10.9055579    9.7274130   20.6904649
H    9.7994720    9.2055198   19.7001520
C   15.7161443    9.4532460   19.6551378
H   15.8120791    8.4994678   19.5104492
H   16.6046296    9.8276419   19.7676734
C    9.2425547   11.8006900   19.4622197
H    8.8995913   11.1624303   20.0457969
C   15.7371172   13.9977373    8.9128156
H   16.2209588   13.6411817    8.2022340
C   15.0565071   15.1953969    8.7359741
H   15.0882829   15.6210433    7.9096416
C   11.5619574    8.1528774   19.5377793
H   12.5043098    8.3841001   19.5056263
H   11.3162087    7.7750646   18.6776862
C   13.1587044   20.8344929   12.0573805
H   12.4076280   21.4172194   11.8660700
H   13.6124249   21.1860035   12.8386987
C   14.0485738   20.8689550   10.9657856
H   13.6168669   20.3965673   10.2359122
H   14.8240276   20.3434580   11.2165791
C    7.6674238   19.9281068   19.7290897
H    6.8486296   20.0094367   19.2146415
H    8.0457399   20.8148554   19.8223335
C   14.9650728    9.6661315   20.8608758
H   14.0426834    9.4279437   20.6759960
H   14.9800813   10.6185596   21.0489710
C    6.5831864   16.3007567   17.1086190
H    7.0632746   17.1373790   17.0218059
H    6.1201459   16.1594752   16.2678177
C   15.6267041   10.9876648   10.4400838
H   14.7328058   11.1713958   10.1105154
H   15.5578977   10.8648484   11.3998513
C   12.2346021   18.4933919    8.5301948
H   12.3991602   19.0594225    9.3002595
H   11.4025321   18.0184458    8.6893522
C   11.3324346    7.1381324   20.6132976
H   10.3858331    6.9355137   20.6534889
H   11.5874296    7.5230023   21.4653525
C   13.3497586   17.4870061    8.4273051
H   14.1617389   17.9288152    8.1331050
H   13.1190623   16.8089684    7.7713836
C   15.3510178    8.9895681   22.0601833
H   15.2307208    8.0388870   21.9122794
H   16.2998699    9.1391348   22.1904030
C   20.7262645   10.0357673   11.6361760
H   21.3901812   10.0388088   12.3435423
H   20.5674991    9.1104399   11.3950284
C   15.4689195    8.5757414   10.1908980
H   14.6112143    8.5534716    9.7391481
H   15.2768533    8.5751951   11.1426272
C   12.0829851    5.8709485   20.4187719
H   11.8791032    5.2653169   21.1357841
H   11.8295242    5.4733359   19.5827935
H   13.0251303    6.0559573   20.4139489
C   12.0693240   19.3428850    7.3485715
H   11.8390644   18.7693987    6.6026215
H   12.9319963   19.7392755    7.1492228
C   19.5528736   10.5502129   12.1522319
H   19.7093214   11.4844120   12.3564035
H   18.8886234   10.5224830   11.4448655
C   14.6614194    9.3375091   23.3286197
H   15.0088477    8.7948156   24.0408090
H   14.8113782   10.2638327   23.5295761
H   13.7189659    9.1785619   23.2337683
C    7.5527856   15.2880186   17.2066857
H    8.1550812   15.4029118   16.4559129
H    7.0928610   14.4446305   17.0684278
C   16.0262801    9.8303456    9.9079514
H   15.9623692    9.9403089    8.9465763
H   16.9727204    9.7545513   10.1105154
C   11.1206074   20.3871893    7.3935857
H   11.1446390   20.8764371    6.5688609
H   10.2432576   20.0172803    7.5205901
H   11.3280117   20.9770242    8.1218515
C   21.3083710   10.7266657   10.4561603
H   22.1006944   10.2640489   10.1732138
H   20.6691154   10.7306814    9.7407558
H   21.5324041   11.6307558   10.6908773
C    7.3328736   19.3970613   21.0891623
H    6.7146047   19.9920334   21.5216203
H    6.9345570   18.5284529   21.0055644
H    8.1344700   19.3338715   21.6132564
C   14.5263882   22.0774159   10.4416915
H   13.7586074   22.5934452   10.1523143
H   14.9380491   22.5671254   11.1699573
C   15.5040661   22.0465294    9.3082977
H   15.7196571   22.9447873    9.0478583
H   16.3037028   21.5946549    9.5880289
H   15.1165550   21.5805353    8.5639554
C    5.5565906   16.5132914   18.1182237
H    5.0851084   15.6754736   18.2532664
H    5.9936888   16.7367130   18.9542021
C    4.5198059   17.6033945   17.8095548
H    3.9077376   17.6809213   18.5442511
H    4.9675882   18.4417210   17.6761198
H    4.0372176   17.3707472   17.0137677
C   16.0664960    7.3789297    9.9240279
H   15.4648420    6.6645972   10.1458837
H   16.2879840    7.3334613    8.9915905
H   16.8669951    7.2979093   10.4481221
--
0 1
N   27.5805411  -12.9294526   35.0131860
O   31.9416674  -16.9998920   31.2765234
O   28.9826759  -18.0045531   35.8731183
N   27.4547377  -10.9614086   33.0701793
H   28.0026791  -11.5888379   33.2831930
N   30.9558185  -14.2371741   31.7105891
O   23.9021837   -9.0882230   34.5537194
N   29.4711827  -14.3957883   33.5978103
H   29.1472742  -13.6003562   33.5581013
N   28.5304937  -10.2387355   31.0353758
N   29.5298243  -12.2964705   31.7848625
O   25.2418052  -10.5835692   38.0198144
O   26.5335616   -8.4794915   29.7007041
O   30.5235997   -8.8179352   29.3749941
O   33.3536103  -13.5941590   29.9545522
O   28.0964145  -15.3569501   38.5953533
N   28.5067039  -15.0582544   35.6937045
N   26.1560948  -10.9807473   35.0789389
C   30.6382479  -12.9842152   31.3877728
C   27.5355229  -10.2443552   31.8973981
C   25.6875434   -9.5736709   33.0934902
C   30.5572497  -16.2880961   33.0484760
C   26.7802511  -12.0167787   35.6364722
C   29.1604003  -15.2863351   34.5886054
C   29.8206769  -16.5333405   34.2108075
C   31.4311554  -12.2012479   30.4553354
C   26.3548600   -9.3997257   31.8748910
C   27.8647691  -13.8994106   35.9285823
C   30.3455216  -14.8963766   32.6787163
C   29.5237628  -11.1277516   31.0823192
C   25.8647292   -8.5490849   30.8572481
C   29.7732518  -17.8139651   34.7799159
C   30.7299425  -11.0076586   30.2656326
C   24.5067174   -8.8677307   33.3651832
C   32.7083809  -18.0106313   30.6177081
H   32.2017952  -18.8361460   30.5662633
H   33.5270805  -18.1832595   31.1080416
C   31.2997844  -17.3054020   32.4343534
C   26.4162951  -10.5701819   33.8539090
C   27.2932376  -13.5769062   37.2249918
C   26.5986517  -12.3693890   37.0532947
C   31.2247403  -10.0006161   29.4344772
C   30.5264863  -18.7851904   34.1770468
H   30.5310769  -19.6388957   34.5435912
C   24.6864860   -7.8696922   31.1707400
H   24.3213687   -7.2970905   30.5357179
C   25.9386437  -11.7783715   38.1190064
C   24.0545204   -8.0066705   32.3587939
H   23.2850027   -7.5079480   32.5131283
C   31.2762702  -18.5407429   33.0468684
H   31.7823244  -19.2307757   32.6867546
C   27.3141327  -14.2153470   38.4710819
C   33.0204413  -17.5219500   29.2624586
H   33.3901873  -16.6277459   29.3315875
H   32.1957374  -17.4600215   28.7560486
C   32.6410887  -12.4266634   29.7994139
C   22.7022561   -8.3807329   34.8779825
H   22.0807288   -8.4223993   34.1352479
H   22.9048964   -7.4483253   35.0548241
C   33.0910559  -11.4392875   28.9537896
H   33.8866840  -11.5762170   28.4907862
C   30.9069355   -7.8527022   28.4377337
H   30.7470606   -8.1796331   27.5390570
H   31.8531466   -7.6577399   28.5293698
C   25.9364742   -7.9054661   28.5743840
H   25.8405394   -6.9516879   28.7190726
H   25.0479889   -8.2798620   28.4618485
C   32.4100638  -10.2529101   28.7673021
H   32.7530272   -9.6146504   28.1837249
C   25.9155014  -12.4499574   39.3167062
H   25.4316597  -12.0934018   40.0272878
C   26.5961114  -13.6476170   39.4935478
H   26.5643356  -14.0732633   40.3198803
C   30.0906611   -6.6050975   28.6917425
H   29.1483088   -6.8363202   28.7238956
H   30.3364099   -6.2272847   29.5518357
C   28.4939141  -19.2867130   36.1721414
H   29.2449906  -19.8694395   36.3634518
H   28.0401937  -19.6382236   35.3908231
C   27.6040447  -19.3211751   37.2637362
H   28.0357516  -18.8487874   37.9936097
H   26.8285909  -18.7956781   37.0129427
C   33.9851948  -18.3803269   28.5004321
H   34.8039890  -18.4616568   29.0148803
H   33.6068787  -19.2670755   28.4071884
C   26.6875458   -8.1183516   27.3686460
H   27.6099352   -7.8801638   27.5535258
H   26.6725373   -9.0707796   27.1805509
C   35.0694322  -14.7529768   31.1209028
H   34.5893440  -15.5895991   31.2077159
H   35.5324726  -14.6116953   31.9617041
C   26.0259145   -9.4398849   37.7894380
H   26.9198128   -9.6236159   38.1190064
H   26.0947208   -9.3170685   36.8296705
C   29.4180165  -16.9456120   39.6993271
H   29.2534583  -17.5116426   38.9292624
H   30.2500865  -16.4706659   39.5401697
C   30.3201839   -5.5903525   27.6162242
H   31.2667854   -5.3877338   27.5760329
H   30.0651889   -5.9752224   26.7641693
C   28.3028600  -15.9392262   39.8022167
H   27.4908797  -16.3810353   40.0964168
H   28.5335563  -15.2611885   40.4581382
C   26.3016007   -7.4417882   26.1693386
H   26.4218978   -6.4911071   26.3172424
H   25.3527486   -7.5913549   26.0391188
C   20.9263541   -8.4879874   36.5933459
H   20.2624373   -8.4910289   35.8859796
H   21.0851194   -7.5626600   36.8344935
C   26.1836991   -7.0279615   38.0386239
H   27.0414043   -7.0056917   38.4903737
H   26.3757653   -7.0274152   37.0868946
C   29.5696335   -4.3231686   27.8107499
H   29.7735154   -3.7175370   27.0937377
H   29.8230944   -3.9255560   28.6467283
H   28.6274882   -4.5081774   27.8155729
C   29.5832946  -17.7951051   40.8809504
H   29.8135542  -17.2216188   41.6269003
H   28.7206223  -18.1914956   41.0802991
C   22.0997449   -9.0024330   36.0772900
H   21.9432971   -9.9366321   35.8731183
H   22.7639952   -8.9747031   36.7846563
C   26.9911991   -7.7897292   24.9009021
H   26.6437708   -7.2470357   24.1887129
H   26.8412403   -8.7160528   24.6999458
H   27.9336526   -7.6307820   24.9957535
C   34.0998329  -13.7402387   31.0228361
H   33.4975374  -13.8551319   31.7736090
H   34.5597576  -12.8968506   31.1610941
C   25.6263384   -8.2825657   38.3215704
H   25.6902494   -8.3925290   39.2829455
H   24.6798981   -8.2067714   38.1190064
C   30.5320111  -18.8394094   40.8359361
H   30.5079796  -19.3286572   41.6606610
H   31.4093609  -18.4695004   40.7089317
H   30.3246069  -19.4292443   40.1076704
C   20.3442476   -9.1788858   37.7733615
H   19.5519242   -8.7162689   38.0563080
H   20.9835032   -9.1829015   38.4887661
H   20.1202144  -10.0829759   37.5386445
C   34.3197450  -17.8492814   27.1403596
H   34.9380138  -18.4442535   26.7079015
H   34.7180616  -16.9806730   27.2239574
H   33.5181486  -17.7860916   26.6162655
C   27.1262304  -20.5296360   37.7878304
H   27.8940111  -21.0456653   38.0772075
H   26.7145695  -21.0193455   37.0595646
C   26.1485525  -20.4987495   38.9212241
H   25.9329615  -21.3970074   39.1816635
H   25.3489158  -20.0468750   38.6414929
H   26.5360635  -20.0327554   39.6655664
C   36.0960279  -14.9655114   30.1112981
H   36.5675102  -14.1276937   29.9762555
H   35.6589298  -15.1889331   29.2753198
C   37.1328126  -16.0556146   30.4199671
H   37.7448809  -16.1331414   29.6852707
H   36.6850303  -16.8939411   30.5534021
H   37.6154009  -15.8229673   31.2157542
C   25.5861225   -5.8311498   38.3054939
H   26.1877766   -5.1168173   38.0836381
H   25.3646345   -5.7856814   39.2379313
H   24.7856234   -5.7501294   37.7813998
$end
$rem
jobtype sp
method wB97X-D 
basis 6-31G**
scf_guess fragmo
sym_ignore true
scf_print_frgm true
sts_dc trans
sts_trans_donor 1-6 
sts_trans_acceptor 1-6 
cis_n_roots 12
cis_singlets 1
cis_triplets 0
sts_dc_bsse 0
rpa 2
$end
--------------------------------------------------------------
 ----------------------------------------------------------------
             Standard Nuclear Orientation (Angstroms)
    I     Atom           X                Y                Z
 ----------------------------------------------------------------
    1      N      14.0720775000    14.4772325000    13.2163359000
    2      O       9.7109512000    18.5476720000    16.9529985000
    3      O      12.6699426000    19.5523330000    12.3564035000
    4      N      14.1978809000    12.5091885000    15.1593425000
    5      H      13.6499394000    13.1366178000    14.9463288000
    6      N      10.6968001000    15.7849540000    16.5189328000
    7      O      17.7504349000    10.6360029000    13.6758024000
    8      N      12.1814359000    15.9435682000    14.6317116000
    9      H      12.5053443000    15.1481361000    14.6714205000
   10      N      13.1221249000    11.7865154000    17.1941461000
   11      N      12.1227943000    13.8442504000    16.4446593000
   12      O      16.4108133000    12.1313491000    10.2097075000
   13      O      15.1190570000    10.0272714000    18.5288177000
   14      O      11.1290189000    10.3657151000    18.8545277000
   15      O       8.2990082000    15.1419389000    18.2749697000
   16      O      13.5562040000    16.9047300000     9.6341685000
   17      N      13.1459147000    16.6060343000    12.5358173000
   18      N      15.4965237000    12.5285272000    13.1505830000
   19      C      11.0143706000    14.5319951000    16.8417490000
   20      C      14.1170956000    11.7921351000    16.3321237000
   21      C      15.9650751000    11.1214508000    15.1360316000
   22      C      11.0953689000    17.8358760000    15.1810458000
   23      C      14.8723675000    13.5645586000    12.5930497000
   24      C      12.4922182000    16.8341150000    13.6409164000
   25      C      11.8319416000    18.0811204000    14.0187143000
   26      C      10.2214631000    13.7490278000    17.7741864000
   27      C      15.2977586000    10.9475056000    16.3546309000
   28      C      13.7878495000    15.4471905000    12.3009395000
   29      C      11.3070969000    16.4441565000    15.5508055000
   30      C      12.1288558000    12.6755315000    17.1472027000
   31      C      15.7878894000    10.0968648000    17.3722738000
   32      C      11.8793668000    19.3617450000    13.4496060000
   33      C      10.9226761000    12.5554385000    17.9638892000
   34      C      17.1459011000    10.4155106000    14.8643386000
   35      C       8.9442376000    19.5584112000    17.6118137000
   36      H       9.4508233000    20.3839259000    17.6632585000
   37      H       8.1255381000    19.7310394000    17.1214803000
   38      C      10.3528342000    18.8531819000    15.7951684000
   39      C      15.2363235000    12.1179618000    14.3756128000
   40      C      14.3593810000    15.1246861000    11.0045300000
   41      C      15.0539669000    13.9171689000    11.1762271000
   42      C      10.4278783000    11.5483961000    18.7950447000
   43      C      11.1261322000    20.3329703000    14.0524750000
   44      H      11.1215417000    21.1866756000    13.6859306000
   45      C      16.9661325000     9.4174721000    17.0587819000
   46      H      17.3312499000     8.8448704000    17.6938039000
   47      C      15.7139749000    13.3261514000    10.1105154000
   48      C      17.5980982000     9.5544504000    15.8707280000
   49      H      18.3676159000     9.0557279000    15.7163935000
   50      C      10.3763483000    20.0885228000    15.1826535000
   51      H       9.8702941000    20.7785556000    15.5427672000
   52      C      14.3384859000    15.7631269000     9.7584399000
   53      C       8.6321772000    19.0697299000    18.9670633000
   54      H       8.2624313000    18.1755258000    18.8979343000
   55      H       9.4568811000    19.0078014000    19.4734733000
   56      C       9.0115299000    13.9744433000    18.4301079000
   57      C      18.9503624000     9.9285128000    13.3515393000
   58      H      19.5718897000     9.9701792000    14.0942739000
   59      H      18.7477221000     8.9961052000    13.1746977000
   60      C       8.5615626000    12.9870674000    19.2757322000
   61      H       7.7659346000    13.1239969000    19.7387356000
   62      C      10.7456831000     9.4004821000    19.7917881000
   63      H      10.9055579000     9.7274130000    20.6904649000
   64      H       9.7994720000     9.2055198000    19.7001520000
   65      C      15.7161443000     9.4532460000    19.6551378000
   66      H      15.8120791000     8.4994678000    19.5104492000
   67      H      16.6046296000     9.8276419000    19.7676734000
   68      C       9.2425547000    11.8006900000    19.4622197000
   69      H       8.8995913000    11.1624303000    20.0457969000
   70      C      15.7371172000    13.9977373000     8.9128156000
   71      H      16.2209588000    13.6411817000     8.2022340000
   72      C      15.0565071000    15.1953969000     8.7359741000
   73      H      15.0882829000    15.6210433000     7.9096416000
   74      C      11.5619574000     8.1528774000    19.5377793000
   75      H      12.5043098000     8.3841001000    19.5056263000
   76      H      11.3162087000     7.7750646000    18.6776862000
   77      C      13.1587044000    20.8344929000    12.0573805000
   78      H      12.4076280000    21.4172194000    11.8660700000
   79      H      13.6124249000    21.1860035000    12.8386987000
   80      C      14.0485738000    20.8689550000    10.9657856000
   81      H      13.6168669000    20.3965673000    10.2359122000
   82      H      14.8240276000    20.3434580000    11.2165791000
   83      C       7.6674238000    19.9281068000    19.7290897000
   84      H       6.8486296000    20.0094367000    19.2146415000
   85      H       8.0457399000    20.8148554000    19.8223335000
   86      C      14.9650728000     9.6661315000    20.8608758000
   87      H      14.0426834000     9.4279437000    20.6759960000
   88      H      14.9800813000    10.6185596000    21.0489710000
   89      C       6.5831864000    16.3007567000    17.1086190000
   90      H       7.0632746000    17.1373790000    17.0218059000
   91      H       6.1201459000    16.1594752000    16.2678177000
   92      C      15.6267041000    10.9876648000    10.4400838000
   93      H      14.7328058000    11.1713958000    10.1105154000
   94      H      15.5578977000    10.8648484000    11.3998513000
   95      C      12.2346021000    18.4933919000     8.5301948000
   96      H      12.3991602000    19.0594225000     9.3002595000
   97      H      11.4025321000    18.0184458000     8.6893522000
   98      C      11.3324346000     7.1381324000    20.6132976000
   99      H      10.3858331000     6.9355137000    20.6534889000
  100      H      11.5874296000     7.5230023000    21.4653525000
  101      C      13.3497586000    17.4870061000     8.4273051000
  102      H      14.1617389000    17.9288152000     8.1331050000
  103      H      13.1190623000    16.8089684000     7.7713836000
  104      C      15.3510178000     8.9895681000    22.0601833000
  105      H      15.2307208000     8.0388870000    21.9122794000
  106      H      16.2998699000     9.1391348000    22.1904030000
  107      C      20.7262645000    10.0357673000    11.6361760000
  108      H      21.3901812000    10.0388088000    12.3435423000
  109      H      20.5674991000     9.1104399000    11.3950284000
  110      C      15.4689195000     8.5757414000    10.1908980000
  111      H      14.6112143000     8.5534716000     9.7391481000
  112      H      15.2768533000     8.5751951000    11.1426272000
  113      C      12.0829851000     5.8709485000    20.4187719000
  114      H      11.8791032000     5.2653169000    21.1357841000
  115      H      11.8295242000     5.4733359000    19.5827935000
  116      H      13.0251303000     6.0559573000    20.4139489000
  117      C      12.0693240000    19.3428850000     7.3485715000
  118      H      11.8390644000    18.7693987000     6.6026215000
  119      H      12.9319963000    19.7392755000     7.1492228000
  120      C      19.5528736000    10.5502129000    12.1522319000
  121      H      19.7093214000    11.4844120000    12.3564035000
  122      H      18.8886234000    10.5224830000    11.4448655000
  123      C      14.6614194000     9.3375091000    23.3286197000
  124      H      15.0088477000     8.7948156000    24.0408090000
  125      H      14.8113782000    10.2638327000    23.5295761000
  126      H      13.7189659000     9.1785619000    23.2337683000
  127      C       7.5527856000    15.2880186000    17.2066857000
  128      H       8.1550812000    15.4029118000    16.4559129000
  129      H       7.0928610000    14.4446305000    17.0684278000
  130      C      16.0262801000     9.8303456000     9.9079514000
  131      H      15.9623692000     9.9403089000     8.9465763000
  132      H      16.9727204000     9.7545513000    10.1105154000
  133      C      11.1206074000    20.3871893000     7.3935857000
  134      H      11.1446390000    20.8764371000     6.5688609000
  135      H      10.2432576000    20.0172803000     7.5205901000
  136      H      11.3280117000    20.9770242000     8.1218515000
  137      C      21.3083710000    10.7266657000    10.4561603000
  138      H      22.1006944000    10.2640489000    10.1732138000
  139      H      20.6691154000    10.7306814000     9.7407558000
  140      H      21.5324041000    11.6307558000    10.6908773000
  141      C       7.3328736000    19.3970613000    21.0891623000
  142      H       6.7146047000    19.9920334000    21.5216203000
  143      H       6.9345570000    18.5284529000    21.0055644000
  144      H       8.1344700000    19.3338715000    21.6132564000
  145      C      14.5263882000    22.0774159000    10.4416915000
  146      H      13.7586074000    22.5934452000    10.1523143000
  147      H      14.9380491000    22.5671254000    11.1699573000
  148      C      15.5040661000    22.0465294000     9.3082977000
  149      H      15.7196571000    22.9447873000     9.0478583000
  150      H      16.3037028000    21.5946549000     9.5880289000
  151      H      15.1165550000    21.5805353000     8.5639554000
  152      C       5.5565906000    16.5132914000    18.1182237000
  153      H       5.0851084000    15.6754736000    18.2532664000
  154      H       5.9936888000    16.7367130000    18.9542021000
  155      C       4.5198059000    17.6033945000    17.8095548000
  156      H       3.9077376000    17.6809213000    18.5442511000
  157      H       4.9675882000    18.4417210000    17.6761198000
  158      H       4.0372176000    17.3707472000    17.0137677000
  159      C      16.0664960000     7.3789297000     9.9240279000
  160      H      15.4648420000     6.6645972000    10.1458837000
  161      H      16.2879840000     7.3334613000     8.9915905000
  162      H      16.8669951000     7.2979093000    10.4481221000
  163      N      27.5805411000   -12.9294526000    35.0131860000
  164      O      31.9416674000   -16.9998920000    31.2765234000
  165      O      28.9826759000   -18.0045531000    35.8731183000
  166      N      27.4547377000   -10.9614086000    33.0701793000
  167      H      28.0026791000   -11.5888379000    33.2831930000
  168      N      30.9558185000   -14.2371741000    31.7105891000
  169      O      23.9021837000    -9.0882230000    34.5537194000
  170      N      29.4711827000   -14.3957883000    33.5978103000
  171      H      29.1472742000   -13.6003562000    33.5581013000
  172      N      28.5304937000   -10.2387355000    31.0353758000
  173      N      29.5298243000   -12.2964705000    31.7848625000
  174      O      25.2418052000   -10.5835692000    38.0198144000
  175      O      26.5335616000    -8.4794915000    29.7007041000
  176      O      30.5235997000    -8.8179352000    29.3749941000
  177      O      33.3536103000   -13.5941590000    29.9545522000
  178      O      28.0964145000   -15.3569501000    38.5953533000
  179      N      28.5067039000   -15.0582544000    35.6937045000
  180      N      26.1560948000   -10.9807473000    35.0789389000
  181      C      30.6382479000   -12.9842152000    31.3877728000
  182      C      27.5355229000   -10.2443552000    31.8973981000
  183      C      25.6875434000    -9.5736709000    33.0934902000
  184      C      30.5572497000   -16.2880961000    33.0484760000
  185      C      26.7802511000   -12.0167787000    35.6364722000
  186      C      29.1604003000   -15.2863351000    34.5886054000
  187      C      29.8206769000   -16.5333405000    34.2108075000
  188      C      31.4311554000   -12.2012479000    30.4553354000
  189      C      26.3548600000    -9.3997257000    31.8748910000
  190      C      27.8647691000   -13.8994106000    35.9285823000
  191      C      30.3455216000   -14.8963766000    32.6787163000
  192      C      29.5237628000   -11.1277516000    31.0823192000
  193      C      25.8647292000    -8.5490849000    30.8572481000
  194      C      29.7732518000   -17.8139651000    34.7799159000
  195      C      30.7299425000   -11.0076586000    30.2656326000
  196      C      24.5067174000    -8.8677307000    33.3651832000
  197      C      32.7083809000   -18.0106313000    30.6177081000
  198      H      32.2017952000   -18.8361460000    30.5662633000
  199      H      33.5270805000   -18.1832595000    31.1080416000
  200      C      31.2997844000   -17.3054020000    32.4343534000
  201      C      26.4162951000   -10.5701819000    33.8539090000
  202      C      27.2932376000   -13.5769062000    37.2249918000
  203      C      26.5986517000   -12.3693890000    37.0532947000
  204      C      31.2247403000   -10.0006161000    29.4344772000
  205      C      30.5264863000   -18.7851904000    34.1770468000
  206      H      30.5310769000   -19.6388957000    34.5435912000
  207      C      24.6864860000    -7.8696922000    31.1707400000
  208      H      24.3213687000    -7.2970905000    30.5357179000
  209      C      25.9386437000   -11.7783715000    38.1190064000
  210      C      24.0545204000    -8.0066705000    32.3587939000
  211      H      23.2850027000    -7.5079480000    32.5131283000
  212      C      31.2762702000   -18.5407429000    33.0468684000
  213      H      31.7823244000   -19.2307757000    32.6867546000
  214      C      27.3141327000   -14.2153470000    38.4710819000
  215      C      33.0204413000   -17.5219500000    29.2624586000
  216      H      33.3901873000   -16.6277459000    29.3315875000
  217      H      32.1957374000   -17.4600215000    28.7560486000
  218      C      32.6410887000   -12.4266634000    29.7994139000
  219      C      22.7022561000    -8.3807329000    34.8779825000
  220      H      22.0807288000    -8.4223993000    34.1352479000
  221      H      22.9048964000    -7.4483253000    35.0548241000
  222      C      33.0910559000   -11.4392875000    28.9537896000
  223      H      33.8866840000   -11.5762170000    28.4907862000
  224      C      30.9069355000    -7.8527022000    28.4377337000
  225      H      30.7470606000    -8.1796331000    27.5390570000
  226      H      31.8531466000    -7.6577399000    28.5293698000
  227      C      25.9364742000    -7.9054661000    28.5743840000
  228      H      25.8405394000    -6.9516879000    28.7190726000
  229      H      25.0479889000    -8.2798620000    28.4618485000
  230      C      32.4100638000   -10.2529101000    28.7673021000
  231      H      32.7530272000    -9.6146504000    28.1837249000
  232      C      25.9155014000   -12.4499574000    39.3167062000
  233      H      25.4316597000   -12.0934018000    40.0272878000
  234      C      26.5961114000   -13.6476170000    39.4935478000
  235      H      26.5643356000   -14.0732633000    40.3198803000
  236      C      30.0906611000    -6.6050975000    28.6917425000
  237      H      29.1483088000    -6.8363202000    28.7238956000
  238      H      30.3364099000    -6.2272847000    29.5518357000
  239      C      28.4939141000   -19.2867130000    36.1721414000
  240      H      29.2449906000   -19.8694395000    36.3634518000
  241      H      28.0401937000   -19.6382236000    35.3908231000
  242      C      27.6040447000   -19.3211751000    37.2637362000
  243      H      28.0357516000   -18.8487874000    37.9936097000
  244      H      26.8285909000   -18.7956781000    37.0129427000
  245      C      33.9851948000   -18.3803269000    28.5004321000
  246      H      34.8039890000   -18.4616568000    29.0148803000
  247      H      33.6068787000   -19.2670755000    28.4071884000
  248      C      26.6875458000    -8.1183516000    27.3686460000
  249      H      27.6099352000    -7.8801638000    27.5535258000
  250      H      26.6725373000    -9.0707796000    27.1805509000
  251      C      35.0694322000   -14.7529768000    31.1209028000
  252      H      34.5893440000   -15.5895991000    31.2077159000
  253      H      35.5324726000   -14.6116953000    31.9617041000
  254      C      26.0259145000    -9.4398849000    37.7894380000
  255      H      26.9198128000    -9.6236159000    38.1190064000
  256      H      26.0947208000    -9.3170685000    36.8296705000
  257      C      29.4180165000   -16.9456120000    39.6993271000
  258      H      29.2534583000   -17.5116426000    38.9292624000
  259      H      30.2500865000   -16.4706659000    39.5401697000
  260      C      30.3201839000    -5.5903525000    27.6162242000
  261      H      31.2667854000    -5.3877338000    27.5760329000
  262      H      30.0651889000    -5.9752224000    26.7641693000
  263      C      28.3028600000   -15.9392262000    39.8022167000
  264      H      27.4908797000   -16.3810353000    40.0964168000
  265      H      28.5335563000   -15.2611885000    40.4581382000
  266      C      26.3016007000    -7.4417882000    26.1693386000
  267      H      26.4218978000    -6.4911071000    26.3172424000
  268      H      25.3527486000    -7.5913549000    26.0391188000
  269      C      20.9263541000    -8.4879874000    36.5933459000
  270      H      20.2624373000    -8.4910289000    35.8859796000
  271      H      21.0851194000    -7.5626600000    36.8344935000
  272      C      26.1836991000    -7.0279615000    38.0386239000
  273      H      27.0414043000    -7.0056917000    38.4903737000
  274      H      26.3757653000    -7.0274152000    37.0868946000
  275      C      29.5696335000    -4.3231686000    27.8107499000
  276      H      29.7735154000    -3.7175370000    27.0937377000
  277      H      29.8230944000    -3.9255560000    28.6467283000
  278      H      28.6274882000    -4.5081774000    27.8155729000
  279      C      29.5832946000   -17.7951051000    40.8809504000
  280      H      29.8135542000   -17.2216188000    41.6269003000
  281      H      28.7206223000   -18.1914956000    41.0802991000
  282      C      22.0997449000    -9.0024330000    36.0772900000
  283      H      21.9432971000    -9.9366321000    35.8731183000
  284      H      22.7639952000    -8.9747031000    36.7846563000
  285      C      26.9911991000    -7.7897292000    24.9009021000
  286      H      26.6437708000    -7.2470357000    24.1887129000
  287      H      26.8412403000    -8.7160528000    24.6999458000
  288      H      27.9336526000    -7.6307820000    24.9957535000
  289      C      34.0998329000   -13.7402387000    31.0228361000
  290      H      33.4975374000   -13.8551319000    31.7736090000
  291      H      34.5597576000   -12.8968506000    31.1610941000
  292      C      25.6263384000    -8.2825657000    38.3215704000
  293      H      25.6902494000    -8.3925290000    39.2829455000
  294      H      24.6798981000    -8.2067714000    38.1190064000
  295      C      30.5320111000   -18.8394094000    40.8359361000
  296      H      30.5079796000   -19.3286572000    41.6606610000
  297      H      31.4093609000   -18.4695004000    40.7089317000
  298      H      30.3246069000   -19.4292443000    40.1076704000
  299      C      20.3442476000    -9.1788858000    37.7733615000
  300      H      19.5519242000    -8.7162689000    38.0563080000
  301      H      20.9835032000    -9.1829015000    38.4887661000
  302      H      20.1202144000   -10.0829759000    37.5386445000
  303      C      34.3197450000   -17.8492814000    27.1403596000
  304      H      34.9380138000   -18.4442535000    26.7079015000
  305      H      34.7180616000   -16.9806730000    27.2239574000
  306      H      33.5181486000   -17.7860916000    26.6162655000
  307      C      27.1262304000   -20.5296360000    37.7878304000
  308      H      27.8940111000   -21.0456653000    38.0772075000
  309      H      26.7145695000   -21.0193455000    37.0595646000
  310      C      26.1485525000   -20.4987495000    38.9212241000
  311      H      25.9329615000   -21.3970074000    39.1816635000
  312      H      25.3489158000   -20.0468750000    38.6414929000
  313      H      26.5360635000   -20.0327554000    39.6655664000
  314      C      36.0960279000   -14.9655114000    30.1112981000
  315      H      36.5675102000   -14.1276937000    29.9762555000
  316      H      35.6589298000   -15.1889331000    29.2753198000
  317      C      37.1328126000   -16.0556146000    30.4199671000
  318      H      37.7448809000   -16.1331414000    29.6852707000
  319      H      36.6850303000   -16.8939411000    30.5534021000
  320      H      37.6154009000   -15.8229673000    31.2157542000
  321      C      25.5861225000    -5.8311498000    38.3054939000
  322      H      26.1877766000    -5.1168173000    38.0836381000
  323      H      25.3646345000    -5.7856814000    39.2379313000
  324      H      24.7856234000    -5.7501294000    37.7813998000
 ----------------------------------------------------------------
 Nuclear Repulsion Energy =       33090.61579703 hartrees
 There are      586 alpha and      586 beta electrons
 Requested basis set is 6-31G(d,p)
 There are 1132 shells and 3220 basis functions

 Total QAlloc Memory Limit   2000 MB
 Mega-Array Size       188 MB
 MEM_STATIC part       192 MB

 A cutoff of  1.0D-12 yielded  70332 shell pairs
 There are    620080 function pairs
 Smallest overlap matrix eigenvalue = 1.72E-04

 Scale SEOQF with 1.000000e-03/1.000000e-03/1.000000e-03

 Standard Electronic Orientation quadrupole field applied
 Nucleus-field energy     =    -0.0000004814 hartrees
 Can only be proccessed by the old fragmo guess code
 Guess MOs from converged MOs on fragments

QCSCRATCH   is /scratch/sanghita
QCFILEPREF  is /scratch/sanghita/qchem10181/

-----------------------------------------------------------------
 SCF on fragment 1 out of 2 in state 1
-----------------------------------------------------------------

/home/chance/software/ccats2023/exe/qcprog.exe /scratch/sanghita/qchem10181/Frg1s1.input /scratch/sanghita/qchem10181/Frg1s1/
                  Welcome to Q-Chem
     A Quantum Leap Into The Future Of Chemistry


 Q-Chem 6.1 (devel), Q-Chem, Inc., Pleasanton, CA (2022)

 E. Epifanovsky,  A. T. B. Gilbert,  Xintian Feng,  Joonho Lee,  Yuezhi Mao,  
 N. Mardirossian,  P. Pokhilko,  A. White,  M. Wormit,  M. P. Coons,  
 A. L. Dempwolff,  Zhengting Gan,  D. Hait,  P. R. Horn,  L. D. Jacobson,  
 I. Kaliman,  J. Kussmann,  A. W. Lange,  Ka Un Lao,  D. S. Levine,  Jie Liu,  
 S. C. McKenzie,  A. F. Morrison,  K. Nanda,  F. Plasser,  D. R. Rehn,  
 M. L. Vidal,  Zhi-Qiang You,  Ying Zhu,  B. Alam,  B. Albrecht,  
 A. Aldossary,  E. Alguire,  J. H. Andersen,  V. Athavale,  D. Barton,  
 K. Begam,  A. Behn,  N. Bellonzi,  Y. A. Bernard,  E. J. Berquist,  
 H. Burton,  A. Carreras,  K. Carter-Fenk,  Mathew Chow,  Romit Chakraborty,  
 Chandrima Chakravarty,  Junhan Chen,  A. D. Chien,  K. D. Closser,  
 V. Cofer-Shabica,  L. Cunha,  S. Dasgupta,  Jia Deng,  M. de Wergifosse,  
 M. Diedenhofen,  Hainam Do,  S. Ehlert,  Po-Tung Fang,  S. Fatehi,  
 Qingguo Feng,  T. Friedhoff,  Thomas Froitzheim,  B. Ganoe,  J. Gayvert,  
 Qinghui Ge,  G. Gidofalvi,  M. Goldey,  Montgomery Gray,  J. Gomes,  
 C. Gonzalez-Espinoza,  S. Gulania,  A. Gunina,  J. A. Gyamfi,  
 M. W. D. Hanson-Heine,  P. H. P. Harbach,  A. W. Hauser,  M. F. Herbst,  
 M. Hernandez Vera,  M. Hodecker,  Z. C. Holden,  S. Houck,  Xunkun Huang,  
 Kerwin Hui,  B. C. Huynh,  K. Ikeda,  M. Ivanov,  Hyunjun Ji,  Zuxin Jin,  
 Hanjie Jiang,  Subrata Jana,  B. Kaduk,  S. Kaehler,  R. Kang,  
 K. Khistyaev,  Jaehoon Kim,  Yongbin Kim,  P. Klunzinger,  Z. Koczor-Benda,  
 Joong Hoon Koh,  D. Kosenkov,  Saikiran Kotaru,  L. Koulias,  T. Kowalczyk,  
 C. M. Krauter,  K. Kue,  A. Kunitsa,  T. Kus,  A. Landau,  K. V. Lawler,  
 D. Lefrancois,  S. Lehtola,  Rain Li,  Shaozhi Li,  Yi-Pei Li,  
 Jiashu Liang,  M. Liebenthal,  Hung-Hsuan Lin,  You-Sheng Lin,  Fenglai Liu,  
 Kuan-Yu Liu,  M. Loipersberger,  A. Luenser,  C. Malbon,  A. Manjanath,  
 P. Manohar,  E. Mansoor,  S. F. Manzer,  Shan-Ping Mao,  A. V. Marenich,  
 T. Markovich,  S. Mason,  F. Matz,  S. A. Maurer,  P. F. McLaughlin,  
 M. F. S. J. Menger,  J.-M. Mewes,  S. A. Mewes,  P. Morgante,  
 Mohammad Mostafanejad,  J. W. Mullinax,  K. J. Oosterbaan,  G. Paran,  
 V. Parravicini,  Alexander C. Paul,  Suranjan K. Paul,  F. Pavosevic,  
 Zheng Pei,  S. Prager,  E. I. Proynov,  E. Ramos,  B. Rana,  A. E. Rask,  
 A. Rettig,  R. M. Richard,  F. Rob,  E. Rossomme,  T. Scheele,  M. Scheurer,  
 M. Schneider,  P. E. Schneider,  N. Sergueev,  S. M. Sharada,  
 Hengyuan Shen,  W. Skomorowski,  D. W. Small,  C. J. Stein,  Yingli Su,  
 Yu-Chuan Su,  E. J. Sundstrom,  Zhen Tao,  J. Thirman,  Hung-Yi Tsai,  
 T. Tsuchimochi,  N. M. Tubman,  C. Utku,  S. P. Veccham,  O. Vydrov,  
 J. Wenzel,  Jonathan Wong,  J. Witte,  A. Yamada,  Chou-Hsun Yang,  Kun Yao,  
 S. Yeganeh,  S. R. Yost,  A. Zech,  F. Zeller,  Igor Ying Zhang,  
 Xing Zhang,  Yu Zhang,  D. Zuev,  A. Aspuru-Guzik,  A. T. Bell,  
 N. A. Besley,  K. B. Bravaya,  B. R. Brooks,  D. Casanova,  Jeng-Da Chai,  
 Hsing-Ta Chen,  S. Coriani,  C. J. Cramer,  A. E. DePrince, III,  
 R. A. DiStasio Jr.,  A. Dreuw,  B. D. Dunietz,  T. R. Furlani,  
 W. A. Goddard III,  S. Grimme,  S. Hammes-Schiffer,  T. Head-Gordon,  
 W. J. Hehre,  Chao-Ping Hsu,  T.-C. Jagau,  Yousung Jung,  A. Klamt,  
 Jing Kong,  D. S. Lambrecht,  Xiangyuan Li,  WanZhen Liang,  N. J. Mayhall,  
 C. W. McCurdy,  J. B. Neaton,  T. Neudecker,  C. Ochsenfeld,  
 J. A. Parkhill,  R. Peverati,  V. A. Rassolov,  Haisheng Ren,  Yihan Shao,  
 L. V. Slipchenko,  R. P. Steele,  J. E. Subotnik,  A. J. W. Thom,  
 A. Tkatchenko,  D. G. Truhlar,  T. Van Voorhis,  Fan Wang,  
 T. A. Wesolowski,  K. B. Whaley,  H. L. Woodcock III,  P. M. Zimmerman,  
 S. Faraji,  P. M. W. Gill,  M. Head-Gordon,  J. M. Herbert,  A. I. Krylov

 Contributors to earlier versions of Q-Chem not listed above: 
 R. D. Adamson,  B. Austin,  R. Baer,  J. Baker,  G. J. O. Beran,  
 K. Brandhorst,  S. T. Brown,  E. F. C. Byrd,  Arup K. Chakraborty,  
 G. K. L. Chan,  Chun-Min Chang,  Yunqing Chen,  C.-L. Cheng,  
 Siu Hung Chien,  D. M. Chipman,  D. L. Crittenden,  H. Dachsel,  
 R. J. Doerksen,  A. D. Dutoi,  R. G. Edgar,  J. Fosso-Tande,  
 L. Fusti-Molnar,  D. Ghosh,  A. Ghysels,  A. Golubeva-Zadorozhnaya,  
 J. Gonthier,  M. S. Gordon,  S. R. Gwaltney,  G. Hawkins,  J. E. Herr,  
 A. Heyden,  S. Hirata,  E. G. Hohenstein,  G. Kedziora,  F. J. Keil,  
 C. Kelley,  Jihan Kim,  R. A. King,  R. Z. Khaliullin,  P. P. Korambath,  
 W. Kurlancheek,  A. Laurent,  A. M. Lee,  M. S. Lee,  S. V. Levchenko,  
 Ching Yeh Lin,  D. Liotard,  E. Livshits,  R. C. Lochan,  I. Lotan,  
 L. A. Martinez-Martinez,  P. E. Maslen,  N. Nair,  D. P. O'Neill,  
 D. Neuhauser,  E. Neuscamman,  C. M. Oana,  R. Olivares-Amaya,  R. Olson,  
 T. M. Perrine,  B. Peters,  P. A. Pieniazek,  A. Prociuk,  Y. M. Rhee,  
 J. Ritchie,  M. A. Rohrdanz,  E. Rosta,  N. J. Russ,  H. F. Schaefer III,  
 M. W. Schmidt,  N. E. Schultz,  S. Sharma,  N. Shenvi,  C. D. Sherrill,  
 A. C. Simmonett,  A. Sodt,  T. Stein,  D. Stuck,  K. S. Thanthiriwatte,  
 V. Vanovschi,  L. Vogt,  Tao Wang,  A. Warshel,  M. A. Watson,  
 C. F. Williams,  Q. Wu,  X. Xu,  Jun Yang,  W. Zhang,  Yan Zhao

   Please cite Q-Chem as follows:
  "Software for the frontiers of quantum chemistry:
   An overview of developments in the Q-Chem 5 package"
   J. Chem. Phys. 155, 084801 (2021)
   https://doi.org/10.1063/5.0055522 (open access)

 Q-Chem 6.1.0 for Intel X86 EM64T Linux

 Parts of Q-Chem use Armadillo 9.900.5 (Nocturnal Misbehaviour).
 http://arma.sourceforge.net/

 Q-Chem begins on Sat Feb 15 18:10:44 2025  

 Host: n103.cluster
0

     Scratch files written to /scratch/sanghita/qchem10181/Frg1s1//
 Processing $rem in /home/chance/software/ccats2023/config/preferences:
 Processing $rem in /home/sanghita/.qchemrc:

 Checking the input file for inconsistencies... 	...done.

--------------------------------------------------------------
User input:
--------------------------------------------------------------
$molecule
0 1
 7	14.0720775000	14.4772325000	13.2163359000
 8	9.7109512000	18.5476720000	16.9529985000
 8	12.6699426000	19.5523330000	12.3564035000
 7	14.1978809000	12.5091885000	15.1593425000
 1	13.6499394000	13.1366178000	14.9463288000
 7	10.6968001000	15.7849540000	16.5189328000
 8	17.7504349000	10.6360029000	13.6758024000
 7	12.1814359000	15.9435682000	14.6317116000
 1	12.5053443000	15.1481361000	14.6714205000
 7	13.1221249000	11.7865154000	17.1941461000
 7	12.1227943000	13.8442504000	16.4446593000
 8	16.4108133000	12.1313491000	10.2097075000
 8	15.1190570000	10.0272714000	18.5288177000
 8	11.1290189000	10.3657151000	18.8545277000
 8	8.2990082000	15.1419389000	18.2749697000
 8	13.5562040000	16.9047300000	9.6341685000
 7	13.1459147000	16.6060343000	12.5358173000
 7	15.4965237000	12.5285272000	13.1505830000
 6	11.0143706000	14.5319951000	16.8417490000
 6	14.1170956000	11.7921351000	16.3321237000
 6	15.9650751000	11.1214508000	15.1360316000
 6	11.0953689000	17.8358760000	15.1810458000
 6	14.8723675000	13.5645586000	12.5930497000
 6	12.4922182000	16.8341150000	13.6409164000
 6	11.8319416000	18.0811204000	14.0187143000
 6	10.2214631000	13.7490278000	17.7741864000
 6	15.2977586000	10.9475056000	16.3546309000
 6	13.7878495000	15.4471905000	12.3009395000
 6	11.3070969000	16.4441565000	15.5508055000
 6	12.1288558000	12.6755315000	17.1472027000
 6	15.7878894000	10.0968648000	17.3722738000
 6	11.8793668000	19.3617450000	13.4496060000
 6	10.9226761000	12.5554385000	17.9638892000
 6	17.1459011000	10.4155106000	14.8643386000
 6	8.9442376000	19.5584112000	17.6118137000
 1	9.4508233000	20.3839259000	17.6632585000
 1	8.1255381000	19.7310394000	17.1214803000
 6	10.3528342000	18.8531819000	15.7951684000
 6	15.2363235000	12.1179618000	14.3756128000
 6	14.3593810000	15.1246861000	11.0045300000
 6	15.0539669000	13.9171689000	11.1762271000
 6	10.4278783000	11.5483961000	18.7950447000
 6	11.1261322000	20.3329703000	14.0524750000
 1	11.1215417000	21.1866756000	13.6859306000
 6	16.9661325000	9.4174721000	17.0587819000
 1	17.3312499000	8.8448704000	17.6938039000
 6	15.7139749000	13.3261514000	10.1105154000
 6	17.5980982000	9.5544504000	15.8707280000
 1	18.3676159000	9.0557279000	15.7163935000
 6	10.3763483000	20.0885228000	15.1826535000
 1	9.8702941000	20.7785556000	15.5427672000
 6	14.3384859000	15.7631269000	9.7584399000
 6	8.6321772000	19.0697299000	18.9670633000
 1	8.2624313000	18.1755258000	18.8979343000
 1	9.4568811000	19.0078014000	19.4734733000
 6	9.0115299000	13.9744433000	18.4301079000
 6	18.9503624000	9.9285128000	13.3515393000
 1	19.5718897000	9.9701792000	14.0942739000
 1	18.7477221000	8.9961052000	13.1746977000
 6	8.5615626000	12.9870674000	19.2757322000
 1	7.7659346000	13.1239969000	19.7387356000
 6	10.7456831000	9.4004821000	19.7917881000
 1	10.9055579000	9.7274130000	20.6904649000
 1	9.7994720000	9.2055198000	19.7001520000
 6	15.7161443000	9.4532460000	19.6551378000
 1	15.8120791000	8.4994678000	19.5104492000
 1	16.6046296000	9.8276419000	19.7676734000
 6	9.2425547000	11.8006900000	19.4622197000
 1	8.8995913000	11.1624303000	20.0457969000
 6	15.7371172000	13.9977373000	8.9128156000
 1	16.2209588000	13.6411817000	8.2022340000
 6	15.0565071000	15.1953969000	8.7359741000
 1	15.0882829000	15.6210433000	7.9096416000
 6	11.5619574000	8.1528774000	19.5377793000
 1	12.5043098000	8.3841001000	19.5056263000
 1	11.3162087000	7.7750646000	18.6776862000
 6	13.1587044000	20.8344929000	12.0573805000
 1	12.4076280000	21.4172194000	11.8660700000
 1	13.6124249000	21.1860035000	12.8386987000
 6	14.0485738000	20.8689550000	10.9657856000
 1	13.6168669000	20.3965673000	10.2359122000
 1	14.8240276000	20.3434580000	11.2165791000
 6	7.6674238000	19.9281068000	19.7290897000
 1	6.8486296000	20.0094367000	19.2146415000
 1	8.0457399000	20.8148554000	19.8223335000
 6	14.9650728000	9.6661315000	20.8608758000
 1	14.0426834000	9.4279437000	20.6759960000
 1	14.9800813000	10.6185596000	21.0489710000
 6	6.5831864000	16.3007567000	17.1086190000
 1	7.0632746000	17.1373790000	17.0218059000
 1	6.1201459000	16.1594752000	16.2678177000
 6	15.6267041000	10.9876648000	10.4400838000
 1	14.7328058000	11.1713958000	10.1105154000
 1	15.5578977000	10.8648484000	11.3998513000
 6	12.2346021000	18.4933919000	8.5301948000
 1	12.3991602000	19.0594225000	9.3002595000
 1	11.4025321000	18.0184458000	8.6893522000
 6	11.3324346000	7.1381324000	20.6132976000
 1	10.3858331000	6.9355137000	20.6534889000
 1	11.5874296000	7.5230023000	21.4653525000
 6	13.3497586000	17.4870061000	8.4273051000
 1	14.1617389000	17.9288152000	8.1331050000
 1	13.1190623000	16.8089684000	7.7713836000
 6	15.3510178000	8.9895681000	22.0601833000
 1	15.2307208000	8.0388870000	21.9122794000
 1	16.2998699000	9.1391348000	22.1904030000
 6	20.7262645000	10.0357673000	11.6361760000
 1	21.3901812000	10.0388088000	12.3435423000
 1	20.5674991000	9.1104399000	11.3950284000
 6	15.4689195000	8.5757414000	10.1908980000
 1	14.6112143000	8.5534716000	9.7391481000
 1	15.2768533000	8.5751951000	11.1426272000
 6	12.0829851000	5.8709485000	20.4187719000
 1	11.8791032000	5.2653169000	21.1357841000
 1	11.8295242000	5.4733359000	19.5827935000
 1	13.0251303000	6.0559573000	20.4139489000
 6	12.0693240000	19.3428850000	7.3485715000
 1	11.8390644000	18.7693987000	6.6026215000
 1	12.9319963000	19.7392755000	7.1492228000
 6	19.5528736000	10.5502129000	12.1522319000
 1	19.7093214000	11.4844120000	12.3564035000
 1	18.8886234000	10.5224830000	11.4448655000
 6	14.6614194000	9.3375091000	23.3286197000
 1	15.0088477000	8.7948156000	24.0408090000
 1	14.8113782000	10.2638327000	23.5295761000
 1	13.7189659000	9.1785619000	23.2337683000
 6	7.5527856000	15.2880186000	17.2066857000
 1	8.1550812000	15.4029118000	16.4559129000
 1	7.0928610000	14.4446305000	17.0684278000
 6	16.0262801000	9.8303456000	9.9079514000
 1	15.9623692000	9.9403089000	8.9465763000
 1	16.9727204000	9.7545513000	10.1105154000
 6	11.1206074000	20.3871893000	7.3935857000
 1	11.1446390000	20.8764371000	6.5688609000
 1	10.2432576000	20.0172803000	7.5205901000
 1	11.3280117000	20.9770242000	8.1218515000
 6	21.3083710000	10.7266657000	10.4561603000
 1	22.1006944000	10.2640489000	10.1732138000
 1	20.6691154000	10.7306814000	9.7407558000
 1	21.5324041000	11.6307558000	10.6908773000
 6	7.3328736000	19.3970613000	21.0891623000
 1	6.7146047000	19.9920334000	21.5216203000
 1	6.9345570000	18.5284529000	21.0055644000
 1	8.1344700000	19.3338715000	21.6132564000
 6	14.5263882000	22.0774159000	10.4416915000
 1	13.7586074000	22.5934452000	10.1523143000
 1	14.9380491000	22.5671254000	11.1699573000
 6	15.5040661000	22.0465294000	9.3082977000
 1	15.7196571000	22.9447873000	9.0478583000
 1	16.3037028000	21.5946549000	9.5880289000
 1	15.1165550000	21.5805353000	8.5639554000
 6	5.5565906000	16.5132914000	18.1182237000
 1	5.0851084000	15.6754736000	18.2532664000
 1	5.9936888000	16.7367130000	18.9542021000
 6	4.5198059000	17.6033945000	17.8095548000
 1	3.9077376000	17.6809213000	18.5442511000
 1	4.9675882000	18.4417210000	17.6761198000
 1	4.0372176000	17.3707472000	17.0137677000
 6	16.0664960000	7.3789297000	9.9240279000
 1	15.4648420000	6.6645972000	10.1458837000
 1	16.2879840000	7.3334613000	8.9915905000
 1	16.8669951000	7.2979093000	10.4481221000
$end

$rem
METHOD		WB97X-D
BASIS		6-31G**
SYM_IGNORE		TRUE
SCF_PRINT_FRGM		TRUE
CIS_N_ROOTS		12
CIS_SINGLETS		1
CIS_TRIPLETS		0
RPA		2
!required keywords
JOBTYPE		SP
SYM_IGNORE		TRUE
SUBSYSTEM		TRUE
SAVE_SUBSYSTEM		TRUE
GEN_SCFMAN		0
ECP		0
$end
--------------------------------------------------------------
 ----------------------------------------------------------------
             Standard Nuclear Orientation (Angstroms)
    I     Atom           X                Y                Z
 ----------------------------------------------------------------
    1      N      14.0720775000    14.4772325000    13.2163359000
    2      O       9.7109512000    18.5476720000    16.9529985000
    3      O      12.6699426000    19.5523330000    12.3564035000
    4      N      14.1978809000    12.5091885000    15.1593425000
    5      H      13.6499394000    13.1366178000    14.9463288000
    6      N      10.6968001000    15.7849540000    16.5189328000
    7      O      17.7504349000    10.6360029000    13.6758024000
    8      N      12.1814359000    15.9435682000    14.6317116000
    9      H      12.5053443000    15.1481361000    14.6714205000
   10      N      13.1221249000    11.7865154000    17.1941461000
   11      N      12.1227943000    13.8442504000    16.4446593000
   12      O      16.4108133000    12.1313491000    10.2097075000
   13      O      15.1190570000    10.0272714000    18.5288177000
   14      O      11.1290189000    10.3657151000    18.8545277000
   15      O       8.2990082000    15.1419389000    18.2749697000
   16      O      13.5562040000    16.9047300000     9.6341685000
   17      N      13.1459147000    16.6060343000    12.5358173000
   18      N      15.4965237000    12.5285272000    13.1505830000
   19      C      11.0143706000    14.5319951000    16.8417490000
   20      C      14.1170956000    11.7921351000    16.3321237000
   21      C      15.9650751000    11.1214508000    15.1360316000
   22      C      11.0953689000    17.8358760000    15.1810458000
   23      C      14.8723675000    13.5645586000    12.5930497000
   24      C      12.4922182000    16.8341150000    13.6409164000
   25      C      11.8319416000    18.0811204000    14.0187143000
   26      C      10.2214631000    13.7490278000    17.7741864000
   27      C      15.2977586000    10.9475056000    16.3546309000
   28      C      13.7878495000    15.4471905000    12.3009395000
   29      C      11.3070969000    16.4441565000    15.5508055000
   30      C      12.1288558000    12.6755315000    17.1472027000
   31      C      15.7878894000    10.0968648000    17.3722738000
   32      C      11.8793668000    19.3617450000    13.4496060000
   33      C      10.9226761000    12.5554385000    17.9638892000
   34      C      17.1459011000    10.4155106000    14.8643386000
   35      C       8.9442376000    19.5584112000    17.6118137000
   36      H       9.4508233000    20.3839259000    17.6632585000
   37      H       8.1255381000    19.7310394000    17.1214803000
   38      C      10.3528342000    18.8531819000    15.7951684000
   39      C      15.2363235000    12.1179618000    14.3756128000
   40      C      14.3593810000    15.1246861000    11.0045300000
   41      C      15.0539669000    13.9171689000    11.1762271000
   42      C      10.4278783000    11.5483961000    18.7950447000
   43      C      11.1261322000    20.3329703000    14.0524750000
   44      H      11.1215417000    21.1866756000    13.6859306000
   45      C      16.9661325000     9.4174721000    17.0587819000
   46      H      17.3312499000     8.8448704000    17.6938039000
   47      C      15.7139749000    13.3261514000    10.1105154000
   48      C      17.5980982000     9.5544504000    15.8707280000
   49      H      18.3676159000     9.0557279000    15.7163935000
   50      C      10.3763483000    20.0885228000    15.1826535000
   51      H       9.8702941000    20.7785556000    15.5427672000
   52      C      14.3384859000    15.7631269000     9.7584399000
   53      C       8.6321772000    19.0697299000    18.9670633000
   54      H       8.2624313000    18.1755258000    18.8979343000
   55      H       9.4568811000    19.0078014000    19.4734733000
   56      C       9.0115299000    13.9744433000    18.4301079000
   57      C      18.9503624000     9.9285128000    13.3515393000
   58      H      19.5718897000     9.9701792000    14.0942739000
   59      H      18.7477221000     8.9961052000    13.1746977000
   60      C       8.5615626000    12.9870674000    19.2757322000
   61      H       7.7659346000    13.1239969000    19.7387356000
   62      C      10.7456831000     9.4004821000    19.7917881000
   63      H      10.9055579000     9.7274130000    20.6904649000
   64      H       9.7994720000     9.2055198000    19.7001520000
   65      C      15.7161443000     9.4532460000    19.6551378000
   66      H      15.8120791000     8.4994678000    19.5104492000
   67      H      16.6046296000     9.8276419000    19.7676734000
   68      C       9.2425547000    11.8006900000    19.4622197000
   69      H       8.8995913000    11.1624303000    20.0457969000
   70      C      15.7371172000    13.9977373000     8.9128156000
   71      H      16.2209588000    13.6411817000     8.2022340000
   72      C      15.0565071000    15.1953969000     8.7359741000
   73      H      15.0882829000    15.6210433000     7.9096416000
   74      C      11.5619574000     8.1528774000    19.5377793000
   75      H      12.5043098000     8.3841001000    19.5056263000
   76      H      11.3162087000     7.7750646000    18.6776862000
   77      C      13.1587044000    20.8344929000    12.0573805000
   78      H      12.4076280000    21.4172194000    11.8660700000
   79      H      13.6124249000    21.1860035000    12.8386987000
   80      C      14.0485738000    20.8689550000    10.9657856000
   81      H      13.6168669000    20.3965673000    10.2359122000
   82      H      14.8240276000    20.3434580000    11.2165791000
   83      C       7.6674238000    19.9281068000    19.7290897000
   84      H       6.8486296000    20.0094367000    19.2146415000
   85      H       8.0457399000    20.8148554000    19.8223335000
   86      C      14.9650728000     9.6661315000    20.8608758000
   87      H      14.0426834000     9.4279437000    20.6759960000
   88      H      14.9800813000    10.6185596000    21.0489710000
   89      C       6.5831864000    16.3007567000    17.1086190000
   90      H       7.0632746000    17.1373790000    17.0218059000
   91      H       6.1201459000    16.1594752000    16.2678177000
   92      C      15.6267041000    10.9876648000    10.4400838000
   93      H      14.7328058000    11.1713958000    10.1105154000
   94      H      15.5578977000    10.8648484000    11.3998513000
   95      C      12.2346021000    18.4933919000     8.5301948000
   96      H      12.3991602000    19.0594225000     9.3002595000
   97      H      11.4025321000    18.0184458000     8.6893522000
   98      C      11.3324346000     7.1381324000    20.6132976000
   99      H      10.3858331000     6.9355137000    20.6534889000
  100      H      11.5874296000     7.5230023000    21.4653525000
  101      C      13.3497586000    17.4870061000     8.4273051000
  102      H      14.1617389000    17.9288152000     8.1331050000
  103      H      13.1190623000    16.8089684000     7.7713836000
  104      C      15.3510178000     8.9895681000    22.0601833000
  105      H      15.2307208000     8.0388870000    21.9122794000
  106      H      16.2998699000     9.1391348000    22.1904030000
  107      C      20.7262645000    10.0357673000    11.6361760000
  108      H      21.3901812000    10.0388088000    12.3435423000
  109      H      20.5674991000     9.1104399000    11.3950284000
  110      C      15.4689195000     8.5757414000    10.1908980000
  111      H      14.6112143000     8.5534716000     9.7391481000
  112      H      15.2768533000     8.5751951000    11.1426272000
  113      C      12.0829851000     5.8709485000    20.4187719000
  114      H      11.8791032000     5.2653169000    21.1357841000
  115      H      11.8295242000     5.4733359000    19.5827935000
  116      H      13.0251303000     6.0559573000    20.4139489000
  117      C      12.0693240000    19.3428850000     7.3485715000
  118      H      11.8390644000    18.7693987000     6.6026215000
  119      H      12.9319963000    19.7392755000     7.1492228000
  120      C      19.5528736000    10.5502129000    12.1522319000
  121      H      19.7093214000    11.4844120000    12.3564035000
  122      H      18.8886234000    10.5224830000    11.4448655000
  123      C      14.6614194000     9.3375091000    23.3286197000
  124      H      15.0088477000     8.7948156000    24.0408090000
  125      H      14.8113782000    10.2638327000    23.5295761000
  126      H      13.7189659000     9.1785619000    23.2337683000
  127      C       7.5527856000    15.2880186000    17.2066857000
  128      H       8.1550812000    15.4029118000    16.4559129000
  129      H       7.0928610000    14.4446305000    17.0684278000
  130      C      16.0262801000     9.8303456000     9.9079514000
  131      H      15.9623692000     9.9403089000     8.9465763000
  132      H      16.9727204000     9.7545513000    10.1105154000
  133      C      11.1206074000    20.3871893000     7.3935857000
  134      H      11.1446390000    20.8764371000     6.5688609000
  135      H      10.2432576000    20.0172803000     7.5205901000
  136      H      11.3280117000    20.9770242000     8.1218515000
  137      C      21.3083710000    10.7266657000    10.4561603000
  138      H      22.1006944000    10.2640489000    10.1732138000
  139      H      20.6691154000    10.7306814000     9.7407558000
  140      H      21.5324041000    11.6307558000    10.6908773000
  141      C       7.3328736000    19.3970613000    21.0891623000
  142      H       6.7146047000    19.9920334000    21.5216203000
  143      H       6.9345570000    18.5284529000    21.0055644000
  144      H       8.1344700000    19.3338715000    21.6132564000
  145      C      14.5263882000    22.0774159000    10.4416915000
  146      H      13.7586074000    22.5934452000    10.1523143000
  147      H      14.9380491000    22.5671254000    11.1699573000
  148      C      15.5040661000    22.0465294000     9.3082977000
  149      H      15.7196571000    22.9447873000     9.0478583000
  150      H      16.3037028000    21.5946549000     9.5880289000
  151      H      15.1165550000    21.5805353000     8.5639554000
  152      C       5.5565906000    16.5132914000    18.1182237000
  153      H       5.0851084000    15.6754736000    18.2532664000
  154      H       5.9936888000    16.7367130000    18.9542021000
  155      C       4.5198059000    17.6033945000    17.8095548000
  156      H       3.9077376000    17.6809213000    18.5442511000
  157      H       4.9675882000    18.4417210000    17.6761198000
  158      H       4.0372176000    17.3707472000    17.0137677000
  159      C      16.0664960000     7.3789297000     9.9240279000
  160      H      15.4648420000     6.6645972000    10.1458837000
  161      H      16.2879840000     7.3334613000     8.9915905000
  162      H      16.8669951000     7.2979093000    10.4481221000
 ----------------------------------------------------------------
 Nuclear Repulsion Energy =       13987.24749538 hartrees
 There are      293 alpha and      293 beta electrons
 Requested basis set is 6-31G(d,p)
 There are 566 shells and 1610 basis functions

 Total QAlloc Memory Limit   2000 MB
 Mega-Array Size       188 MB
 MEM_STATIC part       192 MB

 A cutoff of  1.0D-12 yielded  35166 shell pairs
 There are    310040 function pairs
 Smallest overlap matrix eigenvalue = 1.72E-04

 Scale SEOQF with 1.000000e-03/1.000000e-03/1.000000e-03

 Standard Electronic Orientation quadrupole field applied
 Nucleus-field energy     =    -0.0000000199 hartrees
 Guess from superposition of atomic densities
 Warning:  Energy on first SCF cycle will be non-variational
 SAD guess density has 586.000001 electrons
 Long-range K will be added via erf
 Coulomb attenuation parameter = 0.2 bohr**(-1)
 A restricted hybrid HF-DFT SCF calculation will be
 performed using Pulay DIIS extrapolation
 Exchange:     0.2220 Hartree-Fock + 1.0000 wB97X-D + LR-HF
 Correlation:  1.0000 wB97X-D
 Using SG-2 standard quadrature grid
 Dispersion:   Grimme D
 SCF converges when DIIS error is below 1.0E-08
 using 8 threads for integral computing
 -------------------------------------------------------
 OpenMP Integral computing Module                
 Release: version 1.0, May 2013, Q-Chem Inc. Pittsburgh 
 -------------------------------------------------------
 ---------------------------------------
  Cycle       Energy         DIIS Error
 ---------------------------------------
    1   -3561.2962537231      2.15E-02
    2   -3524.6210831542      1.78E-03
    3   -3525.0470787434      1.43E-03
    4   -3525.5681867917      2.54E-04
    5   -3525.5838782898      1.12E-04
    6   -3525.5874768194      2.53E-05
    7   -3525.5876853936      1.04E-05
    8   -3525.5877312500      4.28E-06
    9   -3525.5877419370      1.68E-06
   10   -3525.5877444394      7.31E-07
   11   -3525.5877448979      3.63E-07
   12   -3525.5877450697      1.67E-07
   13   -3525.5877451459      1.02E-07
   14   -3525.5877451867      6.45E-08
   15   -3525.5877452025      2.87E-08
   16   -3525.5877452057      1.81E-08
   17   -3525.5877452067      7.76E-09 Convergence criterion met
 ---------------------------------------
 SCF time:  CPU 8346.57 s  wall 1119.84 s
 SCF   energy in the final basis set = -3525.58774521
 Total energy in the final basis set = -3525.58774521

 CIS/TDDFT memory preview:
 --------------------------
	NOV = NOa*NVa + NOb*NVb = 771762
	NRoots = 12, max iter = 30, max vectors = 360
	Size of each subspace vector: 5.89 Mb
	Davidson algorithm may add up to 2 x NOV x NRoots (= 141.3 Mb) per iteration
	Max memory = 4239.4 Mb (worst case scenario)
	Currently available memory = 2000.0 Mb

	In case of problems:
	(a) increase memory (MEM_TOTAL = 4240 can hold 360 subspace vectors), or
	(b) request fewer states (CIS_N_ROOTS = 5 will fit in current MEM_TOTAL), or
	(c) reduce MAX_CIS_SUBSPACE (= 169 will fit in current MEM_TOTAL).
	Reducing MAX_CIS_SUBSPACE may hamper convergence.

 CIS energy converged when residual is below 10e- 6

 Direct TDDFT calculation will be performed
 Exchange:     0.2220 Hartree-Fock + 1.0000 wB97X-D + LR-HF
 Correlation:  1.0000 wB97X-D
 Using SG-2 standard quadrature grid
 Dispersion:   Grimme D
 ---------------------------------------------------
 Iter    Rts Conv    Rts Left    Ttl Dev     Max Dev
 ---------------------------------------------------
   1         0          12      0.002290    0.000301
   2         0          12      0.000579    0.000070
   3         0          12      0.000526    0.000062
   4         0          12      0.000378    0.000046
   5         0          12      0.000260    0.000042
   6         0          12      0.000191    0.000026
   7         0          12      0.000197    0.000065
   8         0          12      0.000106    0.000027
   9         2          10      0.000077    0.000024
  10         2          10      0.000045    0.000012
  11         3           9      0.000036    0.000013
  12         6           6      0.000021    0.000007
  13         8           4      0.000017    0.000006
  14        10           2      0.000010    0.000003
  15        11           1      0.000009    0.000003
  16        11           1      0.000007    0.000001
  17        11           1      0.000007    0.000001
  18        12           0      0.000006    0.000001    Roots Converged
 ---------------------------------------------------
 
 ---------------------------------------------------
             TDDFT Excitation Energies              
 ---------------------------------------------------

 Excited state   1: excitation energy (eV) =    1.7761
 Total energy for state  1:                 -3525.52247327 au
    Multiplicity: Singlet 
    Trans. Mom.:  2.1016 X  -0.1538 Y  -2.6746 Z
    Strength   :     0.5045141223
    X: D(  293) --> V(    1) amplitude =  0.9481

 Excited state   2: excitation energy (eV) =    1.8012
 Total energy for state  2:                 -3525.52155227 au
    Multiplicity: Singlet 
    Trans. Mom.:  1.2400 X  -2.8880 Y   1.2268 Z
    Strength   :     0.5023259638
    X: D(  289) --> V(    1) amplitude =  0.2392
    X: D(  293) --> V(    1) amplitude = -0.2151
    X: D(  293) --> V(    2) amplitude =  0.9286

 Excited state   3: excitation energy (eV) =    3.3937
 Total energy for state  3:                 -3525.46302727 au
    Multiplicity: Singlet 
    Trans. Mom.: -0.9015 X   0.2954 Y  -0.8164 Z
    Strength   :     0.1302400557
    X: D(  289) --> V(    1) amplitude =  0.2768
    X: D(  290) --> V(    1) amplitude =  0.4585
    X: D(  292) --> V(    1) amplitude =  0.3078
    X: D(  292) --> V(    2) amplitude =  0.5149
    X: D(  293) --> V(    3) amplitude = -0.4449

 Excited state   4: excitation energy (eV) =    3.4424
 Total energy for state  4:                 -3525.46124052 au
    Multiplicity: Singlet 
    Trans. Mom.: -0.5356 X   1.9513 Y  -0.4906 Z
    Strength   :     0.3656089067
    X: D(  286) --> V(    1) amplitude = -0.2571
    X: D(  289) --> V(    1) amplitude =  0.6939
    X: D(  290) --> V(    1) amplitude = -0.2382
    X: D(  291) --> V(    1) amplitude = -0.3134
    X: D(  291) --> V(    2) amplitude = -0.2924

 Excited state   5: excitation energy (eV) =    3.4892
 Total energy for state  5:                 -3525.45951931 au
    Multiplicity: Singlet 
    Trans. Mom.:  0.6595 X   0.0369 Y  -0.0688 Z
    Strength   :     0.0377055891
    X: D(  287) --> V(    1) amplitude = -0.3985
    X: D(  292) --> V(    1) amplitude =  0.6611
    X: D(  292) --> V(    2) amplitude = -0.4740
    X: D(  293) --> V(    3) amplitude =  0.2542

 Excited state   6: excitation energy (eV) =    3.6056
 Total energy for state  6:                 -3525.45524213 au
    Multiplicity: Singlet 
    Trans. Mom.: -1.0739 X   0.9186 Y   0.8460 Z
    Strength   :     0.2396385118
    X: D(  287) --> V(    1) amplitude = -0.2236
    X: D(  288) --> V(    1) amplitude = -0.2805
    X: D(  289) --> V(    2) amplitude = -0.2631
    X: D(  291) --> V(    1) amplitude =  0.7032
    X: D(  291) --> V(    2) amplitude = -0.4009

 Excited state   7: excitation energy (eV) =    3.6278
 Total energy for state  7:                 -3525.45442450 au
    Multiplicity: Singlet 
    Trans. Mom.: -0.2444 X  -0.0020 Y  -0.0012 Z
    Strength   :     0.0053092658
    X: D(  290) --> V(    1) amplitude =  0.6588
    X: D(  292) --> V(    1) amplitude = -0.4684
    X: D(  292) --> V(    2) amplitude = -0.4515

 Excited state   8: excitation energy (eV) =    3.6901
 Total energy for state  8:                 -3525.45213632 au
    Multiplicity: Singlet 
    Trans. Mom.:  0.0661 X  -0.3101 Y   0.2491 Z
    Strength   :     0.0146999607
    X: D(  286) --> V(    1) amplitude = -0.2688
    X: D(  288) --> V(    2) amplitude =  0.2137
    X: D(  289) --> V(    1) amplitude =  0.3457
    X: D(  291) --> V(    1) amplitude =  0.3822
    X: D(  291) --> V(    2) amplitude =  0.6482

 Excited state   9: excitation energy (eV) =    3.7978
 Total energy for state  9:                 -3525.44817808 au
    Multiplicity: Singlet 
    Trans. Mom.:  0.7780 X   0.0365 Y  -0.6672 Z
    Strength   :     0.0978671810
    X: D(  285) --> V(    1) amplitude =  0.2667
    X: D(  288) --> V(    1) amplitude =  0.5127
    X: D(  289) --> V(    2) amplitude =  0.2391
    X: D(  292) --> V(    2) amplitude =  0.3222
    X: D(  293) --> V(    3) amplitude =  0.4924

 Excited state  10: excitation energy (eV) =    3.8278
 Total energy for state 10:                 -3525.44707594 au
    Multiplicity: Singlet 
    Trans. Mom.: -0.3269 X  -0.0345 Y   0.7540 Z
    Strength   :     0.0634465842
    X: D(  285) --> V(    1) amplitude = -0.2588
    X: D(  287) --> V(    1) amplitude = -0.2493
    X: D(  288) --> V(    1) amplitude = -0.4258
    X: D(  291) --> V(    1) amplitude = -0.2446
    X: D(  291) --> V(    2) amplitude =  0.2513
    X: D(  292) --> V(    2) amplitude =  0.2287
    X: D(  293) --> V(    3) amplitude =  0.4933

 Excited state  11: excitation energy (eV) =    3.8763
 Total energy for state 11:                 -3525.44529366 au
    Multiplicity: Singlet 
    Trans. Mom.:  0.1927 X  -0.0550 Y  -0.2181 Z
    Strength   :     0.0083298285
    X: D(  287) --> V(    1) amplitude = -0.6786
    X: D(  290) --> V(    1) amplitude = -0.3327
    X: D(  292) --> V(    1) amplitude = -0.3503
    X: D(  293) --> V(    3) amplitude = -0.3130

 Excited state  12: excitation energy (eV) =    4.0033
 Total energy for state 12:                 -3525.44062664 au
    Multiplicity: Singlet 
    Trans. Mom.:  0.4869 X   0.2734 Y  -0.9042 Z
    Strength   :     0.1107691743
    X: D(  284) --> V(    1) amplitude =  0.2843
    X: D(  285) --> V(    1) amplitude = -0.3807
    X: D(  289) --> V(    2) amplitude =  0.7042
    X: D(  290) --> V(    2) amplitude =  0.2329
 
 ---------------------------------------------------
  SETman timing summary (seconds)
  CPU time             50531.78s
  System time              0.02s
  Wall time             6645.88s
 
 --------------------------------------------------------------
 
                    Orbital Energies (a.u.)
 --------------------------------------------------------------
 
 Alpha MOs
 -- Occupied --
-19.2909 -19.2900 -19.2872 -19.2812 -19.2811 -19.2743 -19.2594 -19.2560
-14.4784 -14.4777 -14.4394 -14.4394 -14.4381 -14.4367 -14.4239 -14.4234
-10.3747 -10.3733 -10.3732 -10.3719 -10.3594 -10.3585 -10.3555 -10.3554
-10.3549 -10.3543 -10.3543 -10.3533 -10.3526 -10.3507 -10.3414 -10.3381
-10.3153 -10.3139 -10.3122 -10.3109 -10.3066 -10.3044 -10.3037 -10.3037
-10.3030 -10.3026 -10.2915 -10.2911 -10.2898 -10.2893 -10.2817 -10.2809
-10.2801 -10.2793 -10.2763 -10.2760 -10.2749 -10.2741 -10.2736 -10.2724
-10.2547 -10.2543 -10.2528 -10.2523 -10.2501 -10.2473 -10.2460 -10.2426
-10.2426 -10.2413 -10.2406 -10.2391 -10.2388 -10.2384 -10.2374 -10.2356
-10.2312 -10.2310 -10.2310 -10.2306 -10.2302 -10.2270 -10.2221 -10.2219
 -1.1736  -1.1614  -1.1599  -1.1580  -1.1560  -1.1558  -1.1534  -1.1330
 -1.1196  -1.1157  -1.0727  -1.0552  -1.0326  -0.9964  -0.9879  -0.9652
 -0.9644  -0.9629  -0.9545  -0.9478  -0.9437  -0.9434  -0.9425  -0.9371
 -0.9287  -0.9246  -0.9218  -0.9161  -0.8875  -0.8844  -0.8794  -0.8774
 -0.8741  -0.8671  -0.8602  -0.8596  -0.8574  -0.8541  -0.8498  -0.8459
 -0.8369  -0.8240  -0.8195  -0.8182  -0.8045  -0.7870  -0.7852  -0.7819
 -0.7749  -0.7679  -0.7647  -0.7627  -0.7614  -0.7507  -0.7479  -0.7434
 -0.7410  -0.7265  -0.7172  -0.7154  -0.7114  -0.7085  -0.7063  -0.7057
 -0.7032  -0.7020  -0.6963  -0.6918  -0.6903  -0.6889  -0.6856  -0.6801
 -0.6730  -0.6640  -0.6604  -0.6447  -0.6366  -0.6317  -0.6283  -0.6272
 -0.6220  -0.6194  -0.6176  -0.6164  -0.6139  -0.6108  -0.6100  -0.6038
 -0.6021  -0.6019  -0.5982  -0.5911  -0.5841  -0.5789  -0.5777  -0.5742
 -0.5737  -0.5706  -0.5695  -0.5672  -0.5646  -0.5605  -0.5589  -0.5579
 -0.5566  -0.5564  -0.5537  -0.5527  -0.5502  -0.5477  -0.5457  -0.5452
 -0.5435  -0.5423  -0.5382  -0.5374  -0.5358  -0.5340  -0.5312  -0.5295
 -0.5240  -0.5215  -0.5167  -0.5138  -0.5090  -0.5082  -0.5060  -0.5026
 -0.5006  -0.4963  -0.4951  -0.4941  -0.4935  -0.4917  -0.4902  -0.4888
 -0.4859  -0.4850  -0.4839  -0.4826  -0.4815  -0.4806  -0.4788  -0.4778
 -0.4764  -0.4717  -0.4675  -0.4660  -0.4628  -0.4615  -0.4601  -0.4564
 -0.4551  -0.4515  -0.4475  -0.4465  -0.4456  -0.4395  -0.4355  -0.4345
 -0.4333  -0.4321  -0.4298  -0.4272  -0.4254  -0.4246  -0.4228  -0.4209
 -0.4193  -0.4171  -0.4165  -0.4164  -0.4149  -0.4143  -0.4131  -0.4122
 -0.4099  -0.4097  -0.4071  -0.4041  -0.4019  -0.4008  -0.3959  -0.3944
 -0.3929  -0.3914  -0.3900  -0.3849  -0.3826  -0.3811  -0.3778  -0.3706
 -0.3698  -0.3659  -0.3645  -0.3629  -0.3587  -0.3520  -0.3369  -0.3321
 -0.3307  -0.3299  -0.3273  -0.3244  -0.3187  -0.3098  -0.3043  -0.2934
 -0.2894  -0.2765  -0.2711  -0.2673  -0.1988
 -- Virtual --
[...]
  1.3265   1.3308   1.3311   1.3324   1.3339   1.3385   1.3436   1.3455
  1.3504   1.3538   1.3555   1.3579   1.3597   1.3603   1.3622   1.3661
  1.3685   1.3700   1.3761   1.3771   1.3810   1.3885   1.3908   1.3969
  1.4008   1.4015   1.4048   1.4104   1.4139   1.4176   1.4201   1.4207
  1.4224   1.4245   1.4277   1.4303   1.4321   1.4337   1.4372   1.4409
  1.4414   1.4460   1.4478   1.4507   1.4553   1.4626   1.4645   1.4699
  1.4707   1.4747   1.4758   1.4813   1.4838   1.4843   1.4861   1.4915
  1.4964   1.4989   1.5027   1.5055   1.5080   1.5105   1.5137   1.5190
  1.5195   1.5258   1.5271   1.5310   1.5313   1.5349   1.5371   1.5403
  1.5434   1.5499   1.5518   1.5535   1.5569   1.5620   1.5664   1.5689
  1.5720   1.5803   1.5851   1.5921   1.5975   1.6008   1.6040   1.6068
  1.6091   1.6116   1.6134   1.6147   1.6204   1.6253   1.6382   1.6425
  1.6522   1.6539   1.6579   1.6672   1.6706   1.6769   1.6838   1.6848
  1.6950   1.6997   1.7017   1.7082   1.7146   1.7189   1.7209   1.7263
  1.7282   1.7308   1.7312   1.7373   1.7389   1.7430   1.7440   1.7455
  1.7485   1.7502   1.7537   1.7586   1.7634   1.7668   1.7701   1.7725
  1.7734   1.7774   1.7799   1.7858   1.7920   1.7938   1.7963   1.7995
  1.8027   1.8087   1.8096   1.8109   1.8130   1.8142   1.8162   1.8184
  1.8199   1.8240   1.8263   1.8270   1.8272   1.8305   1.8322   1.8349
  1.8389   1.8413   1.8442   1.8468   1.8474   1.8526   1.8547   1.8584
  1.8656   1.8662   1.8693   1.8723   1.8795   1.8849   1.8874   1.8916
  1.8929   1.8942   1.8997   1.9016   1.9062   1.9109   1.9133   1.9187
  1.9252   1.9310   1.9327   1.9382   1.9408   1.9527   1.9558   1.9582
  1.9618   1.9635   1.9690   1.9705   1.9738   1.9804   1.9880   1.9909
  1.9922   1.9949   1.9988   2.0018   2.0037   2.0054   2.0078   2.0084
  2.0111   2.0139   2.0161   2.0176   2.0237   2.0272   2.0312   2.0344
  2.0348   2.0370   2.0414   2.0444   2.0464   2.0497   2.0509   2.0518
  2.0565   2.0588   2.0603   2.0677   2.0712   2.0724   2.0777   2.0798
  2.0817   2.0833   2.0877   2.0907   2.0941   2.0949   2.0977   2.0999
  2.1015   2.1041   2.1070   2.1074   2.1102   2.1112   2.1136   2.1203
  2.1213   2.1247   2.1304   2.1336   2.1409   2.1427   2.1481   2.1539
  2.1545   2.1582   2.1639   2.1662   2.1700   2.1726   2.1758   2.1785
  2.1822   2.1871   2.1929   2.1947   2.1970   2.2008   2.2071   2.2083
  2.2104   2.2122   2.2145   2.2148   2.2152   2.2155   2.2188   2.2209
  2.2210   2.2212   2.2218   2.2242   2.2253   2.2294   2.2310   2.2400
  2.2451   2.2570   2.2623   2.2707   2.2789   2.2860   2.2890   2.2922
  2.2971   2.3095   2.3150   2.3185   2.3196   2.3284   2.3300   2.3321
  2.3338   2.3357   2.3369   2.3383   2.3414   2.3442   2.3460   2.3466
  2.3480   2.3489   2.3516   2.3534   2.3547   2.3569   2.3601   2.3630
  2.3640   2.3679   2.3691   2.3702   2.3712   2.3747   2.3762   2.3785
  2.3814   2.3822   2.3830   2.3851   2.3861   2.3871   2.3880   2.3889
  2.3895   2.3899   2.3909   2.3925   2.3930   2.3953   2.3974   2.3987
  2.4040   2.4055   2.4072   2.4088   2.4120   2.4159   2.4167   2.4178
  2.4212   2.4231   2.4236   2.4260   2.4283   2.4309   2.4331   2.4350
  2.4373   2.4425   2.4442   2.4459   2.4492   2.4500   2.4541   2.4548
  2.4563   2.4590   2.4613   2.4621   2.4636   2.4642   2.4660   2.4712
  2.4726   2.4759   2.4768   2.4800   2.4802   2.4838   2.4896   2.4929
  2.4938   2.4996   2.5001   2.5017   2.5027   2.5062   2.5099   2.5103
  2.5123   2.5127   2.5144   2.5152   2.5199   2.5216   2.5238   2.5249
  2.5259   2.5294   2.5345   2.5371   2.5398   2.5416   2.5422   2.5464
  2.5471   2.5479   2.5483   2.5503   2.5528   2.5548   2.5580   2.5592
  2.5612   2.5619   2.5648   2.5663   2.5715   2.5738   2.5780   2.5828
  2.5836   2.5960   2.5966   2.5979   2.6028   2.6047   2.6094   2.6103
  2.6160   2.6202   2.6263   2.6285   2.6308   2.6327   2.6372   2.6433
  2.6494   2.6501   2.6513   2.6555   2.6573   2.6643   2.6673   2.6687
  2.6724   2.6779   2.6791   2.6803   2.6823   2.6848   2.6874   2.6928
  2.6938   2.6958   2.6997   2.7001   2.7045   2.7061   2.7079   2.7099
  2.7131   2.7144   2.7195   2.7216   2.7271   2.7282   2.7356   2.7394
  2.7438   2.7448   2.7466   2.7474   2.7488   2.7520   2.7569   2.7638
  2.7670   2.7702   2.7762   2.7776   2.7844   2.7871   2.7898   2.7938
  2.7968   2.7988   2.8014   2.8069   2.8093   2.8126   2.8173   2.8223
  2.8245   2.8274   2.8344   2.8368   2.8380   2.8384   2.8428   2.8458
  2.8504   2.8553   2.8658   2.8678   2.8747   2.8779   2.8863   2.8868
  2.8909   2.8941   2.8995   2.9025   2.9053   2.9088   2.9124   2.9156
  2.9157   2.9180   2.9212   2.9239   2.9263   2.9310   2.9358   2.9387
  2.9442   2.9462   2.9517   2.9569   2.9626   2.9631   2.9685   2.9698
  2.9710   2.9746   2.9762   2.9773   2.9778   2.9815   2.9836   2.9839
  2.9889   2.9925   2.9998   3.0043   3.0076   3.0089   3.0183   3.0232
  3.0254   3.0320   3.0422   3.0469   3.0532   3.0598   3.0634   3.0640
  3.0735   3.0745   3.0794   3.0834   3.0859   3.0890   3.0908   3.0930
  3.0974   3.1076   3.1143   3.1179   3.1221   3.1255   3.1271   3.1330
  3.1418   3.1490   3.1560   3.1599   3.1623   3.1664   3.1753   3.1773
  3.1879   3.1941   3.1979   3.2026   3.2037   3.2105   3.2135   3.2146
  3.2186   3.2217   3.2228   3.2243   3.2253   3.2288   3.2309   3.2348
  3.2383   3.2405   3.2553   3.2566   3.2581   3.2638   3.2690   3.2734
  3.2851   3.2912   3.2928   3.2960   3.3020   3.3067   3.3098   3.3114
  3.3120   3.3180   3.3196   3.3210   3.3225   3.3255   3.3271   3.3314
  3.3382   3.3396   3.3438   3.3494   3.3516   3.3550   3.3600   3.3615
  3.3639   3.3676   3.3749   3.3818   3.3894   3.3942   3.3990   3.4195
  3.4217   3.4293   3.4320   3.4385   3.4447   3.4544   3.4655   3.4747
  3.4827   3.4847   3.4988   3.5636   3.6023   3.6661   3.6817   3.6929
  3.6942   3.7061   3.7067   3.7082   3.7128   3.7178   3.7246   3.7255
  3.7268   3.7351   3.7478   3.7544   3.7559   3.7600   3.7619   3.7641
  3.7681   3.7725   3.7739   3.7825   3.7849   3.7865   3.7941   3.7947
  3.7964   3.8074   3.8077   3.8173   3.8182   3.8195   3.8227   3.8248
  3.8253   3.8315   3.8321   3.8448   3.8461   3.8486   3.8534   3.8553
  3.8555   3.8558   3.8564   3.8578   3.8584   3.8592   3.8604   3.8611
  3.8696   3.8724   3.8900   3.8934   3.8968   3.8981   3.9201   3.9550
  3.9584   3.9600   3.9648   3.9704   3.9713   3.9821   3.9843   3.9931
  3.9943   4.0004   4.0039   4.0051   4.0140   4.0174   4.0237   4.0525
  4.0612   4.0718   4.0839   4.0866   4.0934   4.1039   4.1258   4.1304
  4.1371   4.1500   4.1528   4.1599   4.1665   4.2121   4.2157   4.2193
  4.2286   4.2399   4.2454   4.2477   4.2494   4.2514   4.2577   4.2589
  4.2732   4.3097   4.3165   4.3285   4.3459   4.3641   4.3790   4.3948
  4.3999   4.4063   4.4173   4.4342   4.4405   4.4429   4.4461   4.4547
  4.4643   4.4691   4.4861   4.4899   4.5029   4.5573   4.5613   4.5665
  4.5754   4.5789   4.5817   4.5838   4.5924   4.6012   4.6062   4.6144
  4.6252   4.6342   4.6375   4.6584   4.6732   4.6758   4.6960   4.7043
  4.7058   4.7127   4.7178   4.7205   4.7228   4.7324   4.7348   4.7444
  4.7505   4.7727   4.7764   4.7885   4.7942   4.8171   4.8258   4.8596
  4.8717   4.8829   4.8866   4.8942   4.9009   4.9034   4.9532   4.9887
  5.0009   5.1061   5.1180   5.1252   5.1351
 --------------------------------------------------------------
 
          Ground-State Mulliken Net Atomic Charges

     Atom                 Charge (a.u.)
  ----------------------------------------
      1 N                    -0.650502
      2 O                    -0.548538
      3 O                    -0.550285
      4 N                    -0.547024
      5 H                     0.256592
      6 N                    -0.518964
      7 O                    -0.544799
      8 N                    -0.550976
      9 H                     0.258893
     10 N                    -0.503630
     11 N                    -0.647019
     12 O                    -0.578687
     13 O                    -0.531470
     14 O                    -0.542902
     15 O                    -0.537054
     16 O                    -0.532887
     17 N                    -0.499950
     18 N                    -0.520490
     19 C                     0.449826
     20 C                     0.501867
     21 C                    -0.026062
     22 C                    -0.036564
     23 C                     0.454859
     24 C                     0.513472
     25 C                    -0.028334
     26 C                     0.027120
     27 C                    -0.041604
     28 C                     0.448320
     29 C                     0.511786
     30 C                     0.450183
     31 C                     0.320561
     32 C                     0.313101
     33 C                    -0.017028
     34 C                     0.310200
     35 C                     0.046725
     36 H                     0.117827
     37 H                     0.117989
     38 C                     0.322091
     39 C                     0.517248
     40 C                    -0.015493
     41 C                     0.025380
     42 C                     0.304592
     43 C                    -0.117265
     44 H                     0.087957
     45 C                    -0.127754
     46 H                     0.089086
     47 C                     0.251803
     48 C                    -0.121469
     49 H                     0.088311
     50 C                    -0.129386
     51 H                     0.088599
     52 C                     0.298192
     53 C                    -0.248322
     54 H                     0.149661
     55 H                     0.135224
     56 C                     0.255347
     57 C                     0.044285
     58 H                     0.115332
     59 H                     0.117602
     60 C                    -0.102028
     61 H                     0.094944
     62 C                     0.052515
     63 H                     0.114175
     64 H                     0.112959
     65 C                     0.063841
     66 H                     0.107721
     67 H                     0.113962
     68 C                    -0.128373
     69 H                     0.088679
     70 C                    -0.103554
     71 H                     0.097398
     72 C                    -0.128381
     73 H                     0.090087
     74 C                    -0.246097
     75 H                     0.139715
     76 H                     0.134182
     77 C                     0.073275
     78 H                     0.100526
     79 H                     0.112887
     80 C                    -0.240409
     81 H                     0.119895
     82 H                     0.135490
     83 C                    -0.259497
     84 H                     0.119576
     85 H                     0.118834
     86 C                    -0.245445
     87 H                     0.129992
     88 H                     0.134200
     89 C                    -0.249844
     90 H                     0.118668
     91 H                     0.119984
     92 C                     0.102129
     93 H                     0.088970
     94 H                     0.117704
     95 C                    -0.250278
     96 H                     0.138121
     97 H                     0.129468
     98 C                    -0.258105
     99 H                     0.121419
    100 H                     0.118907
    101 C                     0.066871
    102 H                     0.101579
    103 H                     0.103355
    104 C                    -0.251351
    105 H                     0.117223
    106 H                     0.117145
    107 C                    -0.244440
    108 H                     0.111167
    109 H                     0.111537
    110 C                    -0.229581
    111 H                     0.112887
    112 H                     0.112977
    113 C                    -0.363536
    114 H                     0.126442
    115 H                     0.130477
    116 H                     0.124103
    117 C                    -0.246119
    118 H                     0.117256
    119 H                     0.111695
    120 C                    -0.239585
    121 H                     0.135529
    122 H                     0.144105
    123 C                    -0.363020
    124 H                     0.130381
    125 H                     0.132500
    126 H                     0.126889
    127 C                     0.098556
    128 H                     0.098901
    129 H                     0.069595
    130 C                    -0.237786
    131 H                     0.104755
    132 H                     0.108553
    133 C                    -0.351475
    134 H                     0.125196
    135 H                     0.126017
    136 H                     0.118177
    137 C                    -0.362881
    138 H                     0.125320
    139 H                     0.133434
    140 H                     0.130039
    141 C                    -0.367131
    142 H                     0.124767
    143 H                     0.135294
    144 H                     0.130693
    145 C                    -0.247634
    146 H                     0.113442
    147 H                     0.116261
    148 C                    -0.363983
    149 H                     0.129967
    150 H                     0.132897
    151 H                     0.126758
    152 C                    -0.244909
    153 H                     0.111468
    154 H                     0.127788
    155 C                    -0.373666
    156 H                     0.126501
    157 H                     0.122167
    158 H                     0.126748
    159 C                    -0.346300
    160 H                     0.128115
    161 H                     0.118284
    162 H                     0.115800
  ----------------------------------------
  Sum of atomic charges =     0.000000

 -----------------------------------------------------------------
                    Cartesian Multipole Moments
 -----------------------------------------------------------------
    Charge (ESU x 10^10)
                 0.0000
    Dipole Moment (Debye)
         X      -0.1426      Y       0.7375      Z      -1.0562
       Tot       1.2960
    Quadrupole Moments (Debye-Ang)
        XX    -436.6104     XY       0.3455     YY    -400.8626
        XZ     -36.6017     YZ       8.1238     ZZ    -483.6813
    Octopole Moments (Debye-Ang^2)
       XXX  -37216.5975    XXY    4896.0238    XYY  -10955.3643
       YYY   14640.1662    XXZ  -15607.3507    XYZ    -404.6047
       YYZ  -12846.0559    XZZ  -14130.2006    YZZ    4983.2298
       ZZZ  -44883.8957
    Hexadecapole Moments (Debye-Ang^3)
      XXXX ************   XXXY  446017.8300   XXYY -381371.4402
      XYYY  417964.8612   YYYY -407110.2008   XXXZ ************
      XXYZ  156472.1626   XYYZ -349118.3286   YYYZ  484614.6353
      XXZZ -907736.2066   XYZZ  126407.4770   YYZZ -491871.5368
      XZZZ ************   YZZZ  504728.9111   ZZZZ ************
 -----------------------------------------------------------------
 Total job time:  7788.66s(wall), 58850.82s(cpu) 
 Sat Feb 15 22:30:21 2025

        *************************************************************
        *                                                           *
        *  Thank you very much for using Q-Chem.  Have a nice day.  *
        *                                                           *
        *************************************************************


Copy Fragment Subsystem from /scratch/sanghita/qchem10181/Frg2s1/
Copy MO Coefficient from /scratch/sanghita/qchem10181/Frg2s1/
Alpha electrons: 293
 Beta electrons: 293
Copy Set Amplitude from /scratch/sanghita/qchem10181/Frg2s1/

Total alpha electrons: 586
Total  beta electrons: 586

-----------------------------------------------------------------
 Done with SCF on isolated fragments
-----------------------------------------------------------------

-----------------------------------------------------------------
 Start with Direct Coulomb-Exchange Integration 
-----------------------------------------------------------------

 RPA/TDDFT Excited States --
 Donor    : State 1 to 6
 Acceptor : State 1 to 6
                                              Dipole-Dipole
              Coulomb (eV)    Exchange (eV)  Interaction (eV)
           ---------------  ---------------  ---------------
 ( 1, 1):  -0.000959957056                0  -0.000963993359
 ( 1, 2):  -0.000285253203                0  -0.000277377157
 ( 1, 3):   0.000284413187                0   7.15171113E-05
 ( 1, 4):    0.00010884966                0   0.000183183612
 ( 1, 5):  -0.000218590435                0  -0.000154335848
 ( 1, 6):   0.000435839446                0   0.000464091752
 ( 2, 1):  -0.000285254143                0  -0.000277377928
 ( 2, 2):    0.00204309532                0    0.00183867201
 ( 2, 3):  -0.000917273551                0  -0.000620479366
 ( 2, 4):   -0.00107245929                0   -0.00105080091
 ( 2, 5):   0.000365189388                0   0.000135999669
 ( 2, 6):  -0.000391861192                0  -0.000352846623
 ( 3, 1):   0.000284414328                0   7.15179182E-05
 ( 3, 2):  -0.000917273515                0  -0.000620479309
 ( 3, 3):   0.000324331384                0   0.000137828228
 ( 3, 4):   0.000512477293                0   0.000385692467
 ( 3, 5):   -0.00011163607                0  -1.37377429E-05
 ( 3, 6):   0.000122545352                0   0.000141278562
 ( 4, 1):   0.000108851101                0   0.000183184833
 ( 4, 2):   -0.00107246015                0   -0.00105080106
 ( 4, 3):   0.000512477449                0   0.000385692462
 ( 4, 4):   0.000551786212                0   0.000586799184
 ( 4, 5):  -0.000208690266                0  -8.95260899E-05
 ( 4, 6):   0.000218739955                0   0.000185910635
 ( 5, 1):   -0.00021859035                0  -0.000154335504
 ( 5, 2):   0.000365185814                0   0.000135996451
 ( 5, 3):   -0.00011163454                0  -1.37367244E-05
 ( 5, 4):  -0.000208688421                0  -8.95244029E-05
 ( 5, 5):   2.79661565E-05                0  -2.50739477E-05
 ( 5, 6):  -9.09697083E-06                0   2.20535585E-05
 ( 6, 1):   0.000435839684                0   0.000464092085
 ( 6, 2):  -0.000391860808                0   -0.00035284632
 ( 6, 3):   0.000122545468                0   0.000141278732
 ( 6, 4):   0.000218739892                0     0.0001859107
 ( 6, 5):  -9.09766325E-06                0   2.20529473E-05
 ( 6, 6):  -7.07353887E-05                0  -0.000102561841
--------------------------------------------------------------
 DC time:  CPU 13457.50 s  wall 1742.70 s


 CIS/TDDFT memory preview:
 --------------------------
	NOV = NOa*NVa + NOb*NVb = 3087048
	NRoots = 12, max iter = 30, max vectors = 360
	Size of each subspace vector: 23.55 Mb
	Davidson algorithm may add up to 2 x NOV x NRoots (= 565.3 Mb) per iteration
	Max memory = 16957.7 Mb (worst case scenario)
	Currently available memory = 2000.0 Mb

	In case of problems:
	(a) increase memory (MEM_TOTAL = 16958 can hold 360 subspace vectors), or
	(b) request fewer states (CIS_N_ROOTS = 1 will fit in current MEM_TOTAL), or
	(c) reduce MAX_CIS_SUBSPACE (= 42 will fit in current MEM_TOTAL).
	Reducing MAX_CIS_SUBSPACE may hamper convergence.

 CIS energy converged when residual is below 10e- 6
  Skipping CIS/RPA calculation, including relax
  Going directly to Wavefunction Analysis
 No wavefunction analysis requested
 Total job time:  17344.24s(wall), 13497.64s(cpu) 
 Sat Feb 15 22:59:31 2025

        *************************************************************
        *                                                           *
        *  Thank you very much for using Q-Chem.  Have a nice day.  *
        *                                                           *
        *************************************************************


