                  Welcome to Q-Chem
     A Quantum Leap Into The Future Of Chemistry


 Q-Chem 6.1 (devel), Q-Chem, Inc., Pleasanton, CA (2022)

 E. Epifanovsky,  A. T. B. Gilbert,  Xintian Feng,  Joonho Lee,  Yuezhi Mao,  
 N. Mardirossian,  P. Pokhilko,  A. White,  M. Wormit,  M. P. Coons,  
 A. L. Dempwolff,  Zhengting Gan,  D. Hait,  P. R. Horn,  L. D. Jacobson,  
 I. Kaliman,  J. Kussmann,  A. W. Lange,  Ka Un Lao,  D. S. Levine,  Jie Liu,  
 S. C. McKenzie,  A. F. Morrison,  K. Nanda,  F. Plasser,  D. R. Rehn,  
 M. L. Vidal,  Zhi-Qiang You,  Ying Zhu,  B. Alam,  B. Albrecht,  
 A. Aldossary,  E. Alguire,  J. H. Andersen,  V. Athavale,  D. Barton,  
 K. Begam,  A. Behn,  N. Bellonzi,  Y. A. Bernard,  E. J. Berquist,  
 H. Burton,  A. Carreras,  K. Carter-Fenk,  Mathew Chow,  Romit Chakraborty,  
 Chandrima Chakravarty,  Junhan Chen,  A. D. Chien,  K. D. Closser,  
 V. Cofer-Shabica,  L. Cunha,  S. Dasgupta,  Jia Deng,  M. de Wergifosse,  
 M. Diedenhofen,  Hainam Do,  S. Ehlert,  Po-Tung Fang,  S. Fatehi,  
 Qingguo Feng,  T. Friedhoff,  Thomas Froitzheim,  B. Ganoe,  J. Gayvert,  
 Qinghui Ge,  G. Gidofalvi,  M. Goldey,  Montgomery Gray,  J. Gomes,  
 C. Gonzalez-Espinoza,  S. Gulania,  A. Gunina,  J. A. Gyamfi,  
 M. W. D. Hanson-Heine,  P. H. P. Harbach,  A. W. Hauser,  M. F. Herbst,  
 M. Hernandez Vera,  M. Hodecker,  Z. C. Holden,  S. Houck,  Xunkun Huang,  
 Kerwin Hui,  B. C. Huynh,  K. Ikeda,  M. Ivanov,  Hyunjun Ji,  Zuxin Jin,  
 Hanjie Jiang,  Subrata Jana,  B. Kaduk,  S. Kaehler,  R. Kang,  
 K. Khistyaev,  Jaehoon Kim,  Yongbin Kim,  P. Klunzinger,  Z. Koczor-Benda,  
 Joong Hoon Koh,  D. Kosenkov,  Saikiran Kotaru,  L. Koulias,  T. Kowalczyk,  
 C. M. Krauter,  K. Kue,  A. Kunitsa,  T. Kus,  A. Landau,  K. V. Lawler,  
 D. Lefrancois,  S. Lehtola,  Rain Li,  Shaozhi Li,  Yi-Pei Li,  
 Jiashu Liang,  M. Liebenthal,  Hung-Hsuan Lin,  You-Sheng Lin,  Fenglai Liu,  
 Kuan-Yu Liu,  M. Loipersberger,  A. Luenser,  C. Malbon,  A. Manjanath,  
 P. Manohar,  E. Mansoor,  S. F. Manzer,  Shan-Ping Mao,  A. V. Marenich,  
 T. Markovich,  S. Mason,  F. Matz,  S. A. Maurer,  P. F. McLaughlin,  
 M. F. S. J. Menger,  J.-M. Mewes,  S. A. Mewes,  P. Morgante,  
 Mohammad Mostafanejad,  J. W. Mullinax,  K. J. Oosterbaan,  G. Paran,  
 V. Parravicini,  Alexander C. Paul,  Suranjan K. Paul,  F. Pavosevic,  
 Zheng Pei,  S. Prager,  E. I. Proynov,  E. Ramos,  B. Rana,  A. E. Rask,  
 A. Rettig,  R. M. Richard,  F. Rob,  E. Rossomme,  T. Scheele,  M. Scheurer,  
 M. Schneider,  P. E. Schneider,  N. Sergueev,  S. M. Sharada,  
 Hengyuan Shen,  W. Skomorowski,  D. W. Small,  C. J. Stein,  Yingli Su,  
 Yu-Chuan Su,  E. J. Sundstrom,  Zhen Tao,  J. Thirman,  Hung-Yi Tsai,  
 T. Tsuchimochi,  N. M. Tubman,  C. Utku,  S. P. Veccham,  O. Vydrov,  
 J. Wenzel,  Jonathan Wong,  J. Witte,  A. Yamada,  Chou-Hsun Yang,  Kun Yao,  
 S. Yeganeh,  S. R. Yost,  A. Zech,  F. Zeller,  Igor Ying Zhang,  
 Xing Zhang,  Yu Zhang,  D. Zuev,  A. Aspuru-Guzik,  A. T. Bell,  
 N. A. Besley,  K. B. Bravaya,  B. R. Brooks,  D. Casanova,  Jeng-Da Chai,  
 Hsing-Ta Chen,  S. Coriani,  C. J. Cramer,  A. E. DePrince, III,  
 R. A. DiStasio Jr.,  A. Dreuw,  B. D. Dunietz,  T. R. Furlani,  
 W. A. Goddard III,  S. Grimme,  S. Hammes-Schiffer,  T. Head-Gordon,  
 W. J. Hehre,  Chao-Ping Hsu,  T.-C. Jagau,  Yousung Jung,  A. Klamt,  
 Jing Kong,  D. S. Lambrecht,  Xiangyuan Li,  WanZhen Liang,  N. J. Mayhall,  
 C. W. McCurdy,  J. B. Neaton,  T. Neudecker,  C. Ochsenfeld,  
 J. A. Parkhill,  R. Peverati,  V. A. Rassolov,  Haisheng Ren,  Yihan Shao,  
 L. V. Slipchenko,  R. P. Steele,  J. E. Subotnik,  A. J. W. Thom,  
 A. Tkatchenko,  D. G. Truhlar,  T. Van Voorhis,  Fan Wang,  
 T. A. Wesolowski,  K. B. Whaley,  H. L. Woodcock III,  P. M. Zimmerman,  
 S. Faraji,  P. M. W. Gill,  M. Head-Gordon,  J. M. Herbert,  A. I. Krylov

 Contributors to earlier versions of Q-Chem not listed above: 
 R. D. Adamson,  B. Austin,  R. Baer,  J. Baker,  G. J. O. Beran,  
 K. Brandhorst,  S. T. Brown,  E. F. C. Byrd,  Arup K. Chakraborty,  
 G. K. L. Chan,  Chun-Min Chang,  Yunqing Chen,  C.-L. Cheng,  
 Siu Hung Chien,  D. M. Chipman,  D. L. Crittenden,  H. Dachsel,  
 R. J. Doerksen,  A. D. Dutoi,  R. G. Edgar,  J. Fosso-Tande,  
 L. Fusti-Molnar,  D. Ghosh,  A. Ghysels,  A. Golubeva-Zadorozhnaya,  
 J. Gonthier,  M. S. Gordon,  S. R. Gwaltney,  G. Hawkins,  J. E. Herr,  
 A. Heyden,  S. Hirata,  E. G. Hohenstein,  G. Kedziora,  F. J. Keil,  
 C. Kelley,  Jihan Kim,  R. A. King,  R. Z. Khaliullin,  P. P. Korambath,  
 W. Kurlancheek,  A. Laurent,  A. M. Lee,  M. S. Lee,  S. V. Levchenko,  
 Ching Yeh Lin,  D. Liotard,  E. Livshits,  R. C. Lochan,  I. Lotan,  
 L. A. Martinez-Martinez,  P. E. Maslen,  N. Nair,  D. P. O'Neill,  
 D. Neuhauser,  E. Neuscamman,  C. M. Oana,  R. Olivares-Amaya,  R. Olson,  
 T. M. Perrine,  B. Peters,  P. A. Pieniazek,  A. Prociuk,  Y. M. Rhee,  
 J. Ritchie,  M. A. Rohrdanz,  E. Rosta,  N. J. Russ,  H. F. Schaefer III,  
 M. W. Schmidt,  N. E. Schultz,  S. Sharma,  N. Shenvi,  C. D. Sherrill,  
 A. C. Simmonett,  A. Sodt,  T. Stein,  D. Stuck,  K. S. Thanthiriwatte,  
 V. Vanovschi,  L. Vogt,  Tao Wang,  A. Warshel,  M. A. Watson,  
 C. F. Williams,  Q. Wu,  X. Xu,  Jun Yang,  W. Zhang,  Yan Zhao

   Please cite Q-Chem as follows:
  "Software for the frontiers of quantum chemistry:
   An overview of developments in the Q-Chem 5 package"
   J. Chem. Phys. 155, 084801 (2021)
   https://doi.org/10.1063/5.0055522 (open access)

 Q-Chem 6.1.0 for Intel X86 EM64T Linux

 Parts of Q-Chem use Armadillo 9.900.5 (Nocturnal Misbehaviour).
 http://arma.sourceforge.net/

 Q-Chem begins on Sat Feb 15 08:28:04 2025  

 Host: n159.cluster
0

     Scratch files written to /scratch/sanghita/qchem162539//
 Processing $rem in /home/chance/software/ccats2023/config/preferences:
 Processing $rem in /home/sanghita/.qchemrc:

 Checking the input file for inconsistencies... 	...done.

--------------------------------------------------------------
User input:
--------------------------------------------------------------
$molecule
0 1
--
0 1
N   14.0720775   14.4772325   13.2163359
O    9.7109512   18.5476720   16.9529985
O   12.6699426   19.5523330   12.3564035
N   14.1978809   12.5091885   15.1593425
H   13.6499394   13.1366178   14.9463288
N   10.6968001   15.7849540   16.5189328
O   17.7504349   10.6360029   13.6758024
N   12.1814359   15.9435682   14.6317116
H   12.5053443   15.1481361   14.6714205
N   13.1221249   11.7865154   17.1941461
N   12.1227943   13.8442504   16.4446593
O   16.4108133   12.1313491   10.2097075
O   15.1190570   10.0272714   18.5288177
O   11.1290189   10.3657151   18.8545277
O    8.2990082   15.1419389   18.2749697
O   13.5562040   16.9047300    9.6341685
N   13.1459147   16.6060343   12.5358173
N   15.4965237   12.5285272   13.1505830
C   11.0143706   14.5319951   16.8417490
C   14.1170956   11.7921351   16.3321237
C   15.9650751   11.1214508   15.1360316
C   11.0953689   17.8358760   15.1810458
C   14.8723675   13.5645586   12.5930497
C   12.4922182   16.8341150   13.6409164
C   11.8319416   18.0811204   14.0187143
C   10.2214631   13.7490278   17.7741864
C   15.2977586   10.9475056   16.3546309
C   13.7878495   15.4471905   12.3009395
C   11.3070969   16.4441565   15.5508055
C   12.1288558   12.6755315   17.1472027
C   15.7878894   10.0968648   17.3722738
C   11.8793668   19.3617450   13.4496060
C   10.9226761   12.5554385   17.9638892
C   17.1459011   10.4155106   14.8643386
C    8.9442376   19.5584112   17.6118137
H    9.4508233   20.3839259   17.6632585
H    8.1255381   19.7310394   17.1214803
C   10.3528342   18.8531819   15.7951684
C   15.2363235   12.1179618   14.3756128
C   14.3593810   15.1246861   11.0045300
C   15.0539669   13.9171689   11.1762271
C   10.4278783   11.5483961   18.7950447
C   11.1261322   20.3329703   14.0524750
H   11.1215417   21.1866756   13.6859306
C   16.9661325    9.4174721   17.0587819
H   17.3312499    8.8448704   17.6938039
C   15.7139749   13.3261514   10.1105154
C   17.5980982    9.5544504   15.8707280
H   18.3676159    9.0557279   15.7163935
C   10.3763483   20.0885228   15.1826535
H    9.8702941   20.7785556   15.5427672
C   14.3384859   15.7631269    9.7584399
C    8.6321772   19.0697299   18.9670633
H    8.2624313   18.1755258   18.8979343
H    9.4568811   19.0078014   19.4734733
C    9.0115299   13.9744433   18.4301079
C   18.9503624    9.9285128   13.3515393
H   19.5718897    9.9701792   14.0942739
H   18.7477221    8.9961052   13.1746977
C    8.5615626   12.9870674   19.2757322
H    7.7659346   13.1239969   19.7387356
C   10.7456831    9.4004821   19.7917881
H   10.9055579    9.7274130   20.6904649
H    9.7994720    9.2055198   19.7001520
C   15.7161443    9.4532460   19.6551378
H   15.8120791    8.4994678   19.5104492
H   16.6046296    9.8276419   19.7676734
C    9.2425547   11.8006900   19.4622197
H    8.8995913   11.1624303   20.0457969
C   15.7371172   13.9977373    8.9128156
H   16.2209588   13.6411817    8.2022340
C   15.0565071   15.1953969    8.7359741
H   15.0882829   15.6210433    7.9096416
C   11.5619574    8.1528774   19.5377793
H   12.5043098    8.3841001   19.5056263
H   11.3162087    7.7750646   18.6776862
C   13.1587044   20.8344929   12.0573805
H   12.4076280   21.4172194   11.8660700
H   13.6124249   21.1860035   12.8386987
C   14.0485738   20.8689550   10.9657856
H   13.6168669   20.3965673   10.2359122
H   14.8240276   20.3434580   11.2165791
C    7.6674238   19.9281068   19.7290897
H    6.8486296   20.0094367   19.2146415
H    8.0457399   20.8148554   19.8223335
C   14.9650728    9.6661315   20.8608758
H   14.0426834    9.4279437   20.6759960
H   14.9800813   10.6185596   21.0489710
C    6.5831864   16.3007567   17.1086190
H    7.0632746   17.1373790   17.0218059
H    6.1201459   16.1594752   16.2678177
C   15.6267041   10.9876648   10.4400838
H   14.7328058   11.1713958   10.1105154
H   15.5578977   10.8648484   11.3998513
C   12.2346021   18.4933919    8.5301948
H   12.3991602   19.0594225    9.3002595
H   11.4025321   18.0184458    8.6893522
C   11.3324346    7.1381324   20.6132976
H   10.3858331    6.9355137   20.6534889
H   11.5874296    7.5230023   21.4653525
C   13.3497586   17.4870061    8.4273051
H   14.1617389   17.9288152    8.1331050
H   13.1190623   16.8089684    7.7713836
C   15.3510178    8.9895681   22.0601833
H   15.2307208    8.0388870   21.9122794
H   16.2998699    9.1391348   22.1904030
C   20.7262645   10.0357673   11.6361760
H   21.3901812   10.0388088   12.3435423
H   20.5674991    9.1104399   11.3950284
C   15.4689195    8.5757414   10.1908980
H   14.6112143    8.5534716    9.7391481
H   15.2768533    8.5751951   11.1426272
C   12.0829851    5.8709485   20.4187719
H   11.8791032    5.2653169   21.1357841
H   11.8295242    5.4733359   19.5827935
H   13.0251303    6.0559573   20.4139489
C   12.0693240   19.3428850    7.3485715
H   11.8390644   18.7693987    6.6026215
H   12.9319963   19.7392755    7.1492228
C   19.5528736   10.5502129   12.1522319
H   19.7093214   11.4844120   12.3564035
H   18.8886234   10.5224830   11.4448655
C   14.6614194    9.3375091   23.3286197
H   15.0088477    8.7948156   24.0408090
H   14.8113782   10.2638327   23.5295761
H   13.7189659    9.1785619   23.2337683
C    7.5527856   15.2880186   17.2066857
H    8.1550812   15.4029118   16.4559129
H    7.0928610   14.4446305   17.0684278
C   16.0262801    9.8303456    9.9079514
H   15.9623692    9.9403089    8.9465763
H   16.9727204    9.7545513   10.1105154
C   11.1206074   20.3871893    7.3935857
H   11.1446390   20.8764371    6.5688609
H   10.2432576   20.0172803    7.5205901
H   11.3280117   20.9770242    8.1218515
C   21.3083710   10.7266657   10.4561603
H   22.1006944   10.2640489   10.1732138
H   20.6691154   10.7306814    9.7407558
H   21.5324041   11.6307558   10.6908773
C    7.3328736   19.3970613   21.0891623
H    6.7146047   19.9920334   21.5216203
H    6.9345570   18.5284529   21.0055644
H    8.1344700   19.3338715   21.6132564
C   14.5263882   22.0774159   10.4416915
H   13.7586074   22.5934452   10.1523143
H   14.9380491   22.5671254   11.1699573
C   15.5040661   22.0465294    9.3082977
H   15.7196571   22.9447873    9.0478583
H   16.3037028   21.5946549    9.5880289
H   15.1165550   21.5805353    8.5639554
C    5.5565906   16.5132914   18.1182237
H    5.0851084   15.6754736   18.2532664
H    5.9936888   16.7367130   18.9542021
C    4.5198059   17.6033945   17.8095548
H    3.9077376   17.6809213   18.5442511
H    4.9675882   18.4417210   17.6761198
H    4.0372176   17.3707472   17.0137677
C   16.0664960    7.3789297    9.9240279
H   15.4648420    6.6645972   10.1458837
H   16.2879840    7.3334613    8.9915905
H   16.8669951    7.2979093   10.4481221
--
0 1
N   -3.4562148   23.1301470   18.9366787
O    0.9049115   19.0597076   15.2000161
O   -2.0540799   18.0550465   19.7966111
N   -3.5820182   25.0981910   16.9936720
H   -3.0340768   24.4707617   17.2066857
N   -0.0809374   21.8224255   15.6340818
O   -7.1345722   26.9713766   18.4772121
N   -1.5655732   21.6638113   17.5213030
H   -1.8894817   22.4592434   17.4815940
N   -2.5062622   25.8208641   14.9588685
N   -1.5069316   23.7631291   15.7083553
O   -5.7949507   25.4760304   21.9433071
O   -4.5031943   27.5801081   13.6241969
O   -0.5131562   27.2416644   13.2984868
O    2.3168544   22.4654406   13.8780449
O   -2.9403413   20.7026495   22.5188460
N   -2.5300520   21.0013452   19.6171972
N   -4.8806611   25.0788523   19.0024316
C   -0.3985080   23.0753844   15.3112655
C   -3.5012330   25.8152444   15.8208908
C   -5.3492125   26.4859287   17.0169830
C   -0.4795062   19.7715035   16.9719687
C   -4.2565048   24.0428209   19.5599649
C   -1.8763556   20.7732645   18.5120981
C   -1.2160789   19.5262591   18.1343002
C    0.3943995   23.8583517   14.3788281
C   -4.6818959   26.6598739   15.7983837
C   -3.1719868   22.1601890   19.8520750
C   -0.6912343   21.1632230   16.6022091
C   -1.5129931   24.9318480   15.0058119
C   -5.1720267   27.5105147   14.7807408
C   -1.2635041   18.2456345   18.7034086
C   -0.3068134   25.0519410   14.1891253
C   -6.5300385   27.1918689   17.2886759
C    1.6716250   18.0489683   14.5412008
H    1.1650393   17.2234536   14.4897560
H    2.4903246   17.8763401   15.0315343
C    0.2630285   18.7541976   16.3578462
C   -4.6204608   25.4894177   17.7774018
C   -3.7435183   22.4826934   21.1484846
C   -4.4381042   23.6902106   20.9767875
C    0.1879844   26.0589834   13.3579699
C   -0.5102696   17.2744092   18.1005395
H   -0.5056790   16.4207039   18.4670839
C   -6.3502698   28.1899074   15.0942327
H   -6.7153872   28.7625091   14.4592106
C   -5.0981122   24.2812281   22.0424991
C   -6.9822355   28.0529291   16.2822866
H   -7.7517532   28.5516516   16.4366210
C    0.2395143   17.5188567   16.9703611
H    0.7455685   16.8288239   16.6102473
C   -3.7226232   21.8442526   22.3945746
C    1.9836855   18.5376496   13.1859513
H    2.3534314   19.4318537   13.2550803
H    1.1589815   18.5995781   12.6795413
C    1.6043328   23.6329362   13.7229066
C   -8.3344998   27.6788667   18.8014753
H   -8.9560271   27.6372003   18.0587406
H   -8.1318595   28.6112743   18.9783168
C    2.0543001   24.6203121   12.8772823
H    2.8499281   24.4833826   12.4142789
C   -0.1298204   28.2068974   12.3612264
H   -0.2896953   27.8799665   11.4625497
H    0.8163907   28.4018597   12.4528625
C   -5.1002817   28.1541335   12.4978768
H   -5.1962165   29.1079117   12.6425653
H   -5.9887669   27.7797376   12.3853412
C    1.3733079   25.8066895   12.6907948
H    1.7162713   26.4449492   12.1072176
C   -5.1212545   23.6096422   23.2401989
H   -5.6050962   23.9661978   23.9507805
C   -4.4406445   22.4119826   23.4170405
H   -4.4724203   21.9863363   24.2433730
C   -0.9460947   29.4545021   12.6152353
H   -1.8884471   29.2232794   12.6473883
H   -0.7003460   29.8323149   13.4753284
C   -2.5428418   16.7728866   20.0956341
H   -1.7917653   16.1901601   20.2869445
H   -2.9965622   16.4213760   19.3143158
C   -3.4327112   16.7384245   21.1872289
H   -3.0010043   17.2108122   21.9171024
H   -4.2081649   17.2639215   20.9364354
C    2.9484389   17.6792727   12.4239248
H    3.7672331   17.5979428   12.9383731
H    2.5701228   16.7925241   12.3306811
C   -4.3492101   27.9412480   11.2921387
H   -3.4268207   28.1794358   11.4770185
H   -4.3642186   26.9888200   11.1040436
C    4.0326763   21.3066228   15.0443955
H    3.5525881   20.4700005   15.1312087
H    4.4957167   21.4479043   15.8851968
C   -5.0108414   26.6197147   21.7129307
H   -4.1169431   26.4359837   22.0424991
H   -4.9420350   26.7425311   20.7531632
C   -1.6187394   19.1139876   23.6228198
H   -1.7832976   18.5479570   22.8527551
H   -0.7866694   19.5889337   23.4636624
C   -0.7165719   30.4692471   11.5397169
H    0.2300296   30.6718658   11.4995257
H   -0.9715670   30.0843772   10.6876620
C   -2.7338959   20.1203734   23.7257094
H   -3.5458762   19.6785643   24.0199095
H   -2.5031996   20.7984111   24.3816309
C   -4.7351552   28.6178114   10.0928313
H   -4.6148581   29.5684925   10.2407351
H   -5.6840073   28.4682447    9.9626116
C  -10.1104018   27.5716122   20.5168386
H  -10.7743186   27.5685707   19.8094723
H   -9.9516365   28.4969396   20.7579862
C   -4.8530568   29.0316381   21.9621166
H   -3.9953516   29.0539079   22.4138665
H   -4.6609906   29.0321844   21.0103874
C   -1.4671224   31.7364310   11.7342427
H   -1.2632405   32.3420626   11.0172304
H   -1.2136615   32.1340436   12.5702210
H   -2.4092677   31.5514222   11.7390656
C   -1.4534613   18.2644945   24.8044431
H   -1.2232017   18.8379808   25.5503930
H   -2.3161336   17.8681040   25.0037918
C   -8.9370110   27.0571666   20.0007827
H   -9.0934588   26.1229675   19.7966111
H   -8.2727607   27.0848965   20.7081490
C   -4.0455568   28.2698704    8.8243948
H   -4.3929851   28.8125639    8.1122056
H   -4.1955156   27.3435468    8.6234385
H   -3.1031033   28.4288176    8.9192462
C    3.0630770   22.3193609   14.9463288
H    2.4607815   22.2044677   15.6971017
H    3.5230017   23.1627490   15.0845868
C   -5.4104175   27.7770339   22.2450631
H   -5.3465065   27.6670706   23.2064383
H   -6.3568578   27.8528282   22.0424991
C   -0.5047448   17.2201902   24.7594289
H   -0.5287763   16.7309424   25.5841537
H    0.3726050   17.5900992   24.6324245
H   -0.7121490   16.6303553   24.0311631
C  -10.6925083   26.8807138   21.6968542
H  -11.4848317   27.3433307   21.9798008
H  -10.0532527   26.8766981   22.4122588
H  -10.9165414   25.9766237   21.4621372
C    3.2829891   18.2103182   11.0638523
H    3.9012579   17.6153461   10.6313943
H    3.6813057   19.0789266   11.1474501
H    2.4813927   18.2735080   10.5397582
C   -3.9105255   15.5299636   21.7113231
H   -3.1427448   15.0139343   22.0007002
H   -4.3221864   15.0402541   20.9830573
C   -4.8882034   15.5608501   22.8447168
H   -5.1037944   14.6625922   23.1051563
H   -5.6878401   16.0127246   22.5649856
H   -4.5006923   16.0268442   23.5890591
C    5.0592720   21.0940882   14.0347909
H    5.5307543   21.9319059   13.8997482
H    4.6221739   20.8706665   13.1988125
C    6.0960567   20.0039850   14.3434598
H    6.7081251   19.9264582   13.6087634
H    5.6482745   19.1656585   14.4768948
H    6.5786450   20.2366323   15.1392469
C   -5.4506334   30.2284498   22.2289866
H   -4.8489793   30.9427823   22.0071308
H   -5.6721214   30.2739182   23.1614240
H   -6.2511325   30.3094702   21.7048925
$end
$rem
jobtype sp
method wB97X-D 
basis 6-31G**
scf_guess fragmo
sym_ignore true
scf_print_frgm true
sts_dc trans
sts_trans_donor 1-6 
sts_trans_acceptor 1-6 
cis_n_roots 12
cis_singlets 1
cis_triplets 0
sts_dc_bsse 0
rpa 2
$end
--------------------------------------------------------------
 ----------------------------------------------------------------
             Standard Nuclear Orientation (Angstroms)
    I     Atom           X                Y                Z
 ----------------------------------------------------------------
    1      N      14.0720775000    14.4772325000    13.2163359000
    2      O       9.7109512000    18.5476720000    16.9529985000
    3      O      12.6699426000    19.5523330000    12.3564035000
    4      N      14.1978809000    12.5091885000    15.1593425000
    5      H      13.6499394000    13.1366178000    14.9463288000
    6      N      10.6968001000    15.7849540000    16.5189328000
    7      O      17.7504349000    10.6360029000    13.6758024000
    8      N      12.1814359000    15.9435682000    14.6317116000
    9      H      12.5053443000    15.1481361000    14.6714205000
   10      N      13.1221249000    11.7865154000    17.1941461000
   11      N      12.1227943000    13.8442504000    16.4446593000
   12      O      16.4108133000    12.1313491000    10.2097075000
   13      O      15.1190570000    10.0272714000    18.5288177000
   14      O      11.1290189000    10.3657151000    18.8545277000
   15      O       8.2990082000    15.1419389000    18.2749697000
   16      O      13.5562040000    16.9047300000     9.6341685000
   17      N      13.1459147000    16.6060343000    12.5358173000
   18      N      15.4965237000    12.5285272000    13.1505830000
   19      C      11.0143706000    14.5319951000    16.8417490000
   20      C      14.1170956000    11.7921351000    16.3321237000
   21      C      15.9650751000    11.1214508000    15.1360316000
   22      C      11.0953689000    17.8358760000    15.1810458000
   23      C      14.8723675000    13.5645586000    12.5930497000
   24      C      12.4922182000    16.8341150000    13.6409164000
   25      C      11.8319416000    18.0811204000    14.0187143000
   26      C      10.2214631000    13.7490278000    17.7741864000
   27      C      15.2977586000    10.9475056000    16.3546309000
   28      C      13.7878495000    15.4471905000    12.3009395000
   29      C      11.3070969000    16.4441565000    15.5508055000
   30      C      12.1288558000    12.6755315000    17.1472027000
   31      C      15.7878894000    10.0968648000    17.3722738000
   32      C      11.8793668000    19.3617450000    13.4496060000
   33      C      10.9226761000    12.5554385000    17.9638892000
   34      C      17.1459011000    10.4155106000    14.8643386000
   35      C       8.9442376000    19.5584112000    17.6118137000
   36      H       9.4508233000    20.3839259000    17.6632585000
   37      H       8.1255381000    19.7310394000    17.1214803000
   38      C      10.3528342000    18.8531819000    15.7951684000
   39      C      15.2363235000    12.1179618000    14.3756128000
   40      C      14.3593810000    15.1246861000    11.0045300000
   41      C      15.0539669000    13.9171689000    11.1762271000
   42      C      10.4278783000    11.5483961000    18.7950447000
   43      C      11.1261322000    20.3329703000    14.0524750000
   44      H      11.1215417000    21.1866756000    13.6859306000
   45      C      16.9661325000     9.4174721000    17.0587819000
   46      H      17.3312499000     8.8448704000    17.6938039000
   47      C      15.7139749000    13.3261514000    10.1105154000
   48      C      17.5980982000     9.5544504000    15.8707280000
   49      H      18.3676159000     9.0557279000    15.7163935000
   50      C      10.3763483000    20.0885228000    15.1826535000
   51      H       9.8702941000    20.7785556000    15.5427672000
   52      C      14.3384859000    15.7631269000     9.7584399000
   53      C       8.6321772000    19.0697299000    18.9670633000
   54      H       8.2624313000    18.1755258000    18.8979343000
   55      H       9.4568811000    19.0078014000    19.4734733000
   56      C       9.0115299000    13.9744433000    18.4301079000
   57      C      18.9503624000     9.9285128000    13.3515393000
   58      H      19.5718897000     9.9701792000    14.0942739000
   59      H      18.7477221000     8.9961052000    13.1746977000
   60      C       8.5615626000    12.9870674000    19.2757322000
   61      H       7.7659346000    13.1239969000    19.7387356000
   62      C      10.7456831000     9.4004821000    19.7917881000
   63      H      10.9055579000     9.7274130000    20.6904649000
   64      H       9.7994720000     9.2055198000    19.7001520000
   65      C      15.7161443000     9.4532460000    19.6551378000
   66      H      15.8120791000     8.4994678000    19.5104492000
   67      H      16.6046296000     9.8276419000    19.7676734000
   68      C       9.2425547000    11.8006900000    19.4622197000
   69      H       8.8995913000    11.1624303000    20.0457969000
   70      C      15.7371172000    13.9977373000     8.9128156000
   71      H      16.2209588000    13.6411817000     8.2022340000
   72      C      15.0565071000    15.1953969000     8.7359741000
   73      H      15.0882829000    15.6210433000     7.9096416000
   74      C      11.5619574000     8.1528774000    19.5377793000
   75      H      12.5043098000     8.3841001000    19.5056263000
   76      H      11.3162087000     7.7750646000    18.6776862000
   77      C      13.1587044000    20.8344929000    12.0573805000
   78      H      12.4076280000    21.4172194000    11.8660700000
   79      H      13.6124249000    21.1860035000    12.8386987000
   80      C      14.0485738000    20.8689550000    10.9657856000
   81      H      13.6168669000    20.3965673000    10.2359122000
   82      H      14.8240276000    20.3434580000    11.2165791000
   83      C       7.6674238000    19.9281068000    19.7290897000
   84      H       6.8486296000    20.0094367000    19.2146415000
   85      H       8.0457399000    20.8148554000    19.8223335000
   86      C      14.9650728000     9.6661315000    20.8608758000
   87      H      14.0426834000     9.4279437000    20.6759960000
   88      H      14.9800813000    10.6185596000    21.0489710000
   89      C       6.5831864000    16.3007567000    17.1086190000
   90      H       7.0632746000    17.1373790000    17.0218059000
   91      H       6.1201459000    16.1594752000    16.2678177000
   92      C      15.6267041000    10.9876648000    10.4400838000
   93      H      14.7328058000    11.1713958000    10.1105154000
   94      H      15.5578977000    10.8648484000    11.3998513000
   95      C      12.2346021000    18.4933919000     8.5301948000
   96      H      12.3991602000    19.0594225000     9.3002595000
   97      H      11.4025321000    18.0184458000     8.6893522000
   98      C      11.3324346000     7.1381324000    20.6132976000
   99      H      10.3858331000     6.9355137000    20.6534889000
  100      H      11.5874296000     7.5230023000    21.4653525000
  101      C      13.3497586000    17.4870061000     8.4273051000
  102      H      14.1617389000    17.9288152000     8.1331050000
  103      H      13.1190623000    16.8089684000     7.7713836000
  104      C      15.3510178000     8.9895681000    22.0601833000
  105      H      15.2307208000     8.0388870000    21.9122794000
  106      H      16.2998699000     9.1391348000    22.1904030000
  107      C      20.7262645000    10.0357673000    11.6361760000
  108      H      21.3901812000    10.0388088000    12.3435423000
  109      H      20.5674991000     9.1104399000    11.3950284000
  110      C      15.4689195000     8.5757414000    10.1908980000
  111      H      14.6112143000     8.5534716000     9.7391481000
  112      H      15.2768533000     8.5751951000    11.1426272000
  113      C      12.0829851000     5.8709485000    20.4187719000
  114      H      11.8791032000     5.2653169000    21.1357841000
  115      H      11.8295242000     5.4733359000    19.5827935000
  116      H      13.0251303000     6.0559573000    20.4139489000
  117      C      12.0693240000    19.3428850000     7.3485715000
  118      H      11.8390644000    18.7693987000     6.6026215000
  119      H      12.9319963000    19.7392755000     7.1492228000
  120      C      19.5528736000    10.5502129000    12.1522319000
  121      H      19.7093214000    11.4844120000    12.3564035000
  122      H      18.8886234000    10.5224830000    11.4448655000
  123      C      14.6614194000     9.3375091000    23.3286197000
  124      H      15.0088477000     8.7948156000    24.0408090000
  125      H      14.8113782000    10.2638327000    23.5295761000
  126      H      13.7189659000     9.1785619000    23.2337683000
  127      C       7.5527856000    15.2880186000    17.2066857000
  128      H       8.1550812000    15.4029118000    16.4559129000
  129      H       7.0928610000    14.4446305000    17.0684278000
  130      C      16.0262801000     9.8303456000     9.9079514000
  131      H      15.9623692000     9.9403089000     8.9465763000
  132      H      16.9727204000     9.7545513000    10.1105154000
  133      C      11.1206074000    20.3871893000     7.3935857000
  134      H      11.1446390000    20.8764371000     6.5688609000
  135      H      10.2432576000    20.0172803000     7.5205901000
  136      H      11.3280117000    20.9770242000     8.1218515000
  137      C      21.3083710000    10.7266657000    10.4561603000
  138      H      22.1006944000    10.2640489000    10.1732138000
  139      H      20.6691154000    10.7306814000     9.7407558000
  140      H      21.5324041000    11.6307558000    10.6908773000
  141      C       7.3328736000    19.3970613000    21.0891623000
  142      H       6.7146047000    19.9920334000    21.5216203000
  143      H       6.9345570000    18.5284529000    21.0055644000
  144      H       8.1344700000    19.3338715000    21.6132564000
  145      C      14.5263882000    22.0774159000    10.4416915000
  146      H      13.7586074000    22.5934452000    10.1523143000
  147      H      14.9380491000    22.5671254000    11.1699573000
  148      C      15.5040661000    22.0465294000     9.3082977000
  149      H      15.7196571000    22.9447873000     9.0478583000
  150      H      16.3037028000    21.5946549000     9.5880289000
  151      H      15.1165550000    21.5805353000     8.5639554000
  152      C       5.5565906000    16.5132914000    18.1182237000
  153      H       5.0851084000    15.6754736000    18.2532664000
  154      H       5.9936888000    16.7367130000    18.9542021000
  155      C       4.5198059000    17.6033945000    17.8095548000
  156      H       3.9077376000    17.6809213000    18.5442511000
  157      H       4.9675882000    18.4417210000    17.6761198000
  158      H       4.0372176000    17.3707472000    17.0137677000
  159      C      16.0664960000     7.3789297000     9.9240279000
  160      H      15.4648420000     6.6645972000    10.1458837000
  161      H      16.2879840000     7.3334613000     8.9915905000
  162      H      16.8669951000     7.2979093000    10.4481221000
  163      N      -3.4562148000    23.1301470000    18.9366787000
  164      O       0.9049115000    19.0597076000    15.2000161000
  165      O      -2.0540799000    18.0550465000    19.7966111000
  166      N      -3.5820182000    25.0981910000    16.9936720000
  167      H      -3.0340768000    24.4707617000    17.2066857000
  168      N      -0.0809374000    21.8224255000    15.6340818000
  169      O      -7.1345722000    26.9713766000    18.4772121000
  170      N      -1.5655732000    21.6638113000    17.5213030000
  171      H      -1.8894817000    22.4592434000    17.4815940000
  172      N      -2.5062622000    25.8208641000    14.9588685000
  173      N      -1.5069316000    23.7631291000    15.7083553000
  174      O      -5.7949507000    25.4760304000    21.9433071000
  175      O      -4.5031943000    27.5801081000    13.6241969000
  176      O      -0.5131562000    27.2416644000    13.2984868000
  177      O       2.3168544000    22.4654406000    13.8780449000
  178      O      -2.9403413000    20.7026495000    22.5188460000
  179      N      -2.5300520000    21.0013452000    19.6171972000
  180      N      -4.8806611000    25.0788523000    19.0024316000
  181      C      -0.3985080000    23.0753844000    15.3112655000
  182      C      -3.5012330000    25.8152444000    15.8208908000
  183      C      -5.3492125000    26.4859287000    17.0169830000
  184      C      -0.4795062000    19.7715035000    16.9719687000
  185      C      -4.2565048000    24.0428209000    19.5599649000
  186      C      -1.8763556000    20.7732645000    18.5120981000
  187      C      -1.2160789000    19.5262591000    18.1343002000
  188      C       0.3943995000    23.8583517000    14.3788281000
  189      C      -4.6818959000    26.6598739000    15.7983837000
  190      C      -3.1719868000    22.1601890000    19.8520750000
  191      C      -0.6912343000    21.1632230000    16.6022091000
  192      C      -1.5129931000    24.9318480000    15.0058119000
  193      C      -5.1720267000    27.5105147000    14.7807408000
  194      C      -1.2635041000    18.2456345000    18.7034086000
  195      C      -0.3068134000    25.0519410000    14.1891253000
  196      C      -6.5300385000    27.1918689000    17.2886759000
  197      C       1.6716250000    18.0489683000    14.5412008000
  198      H       1.1650393000    17.2234536000    14.4897560000
  199      H       2.4903246000    17.8763401000    15.0315343000
  200      C       0.2630285000    18.7541976000    16.3578462000
  201      C      -4.6204608000    25.4894177000    17.7774018000
  202      C      -3.7435183000    22.4826934000    21.1484846000
  203      C      -4.4381042000    23.6902106000    20.9767875000
  204      C       0.1879844000    26.0589834000    13.3579699000
  205      C      -0.5102696000    17.2744092000    18.1005395000
  206      H      -0.5056790000    16.4207039000    18.4670839000
  207      C      -6.3502698000    28.1899074000    15.0942327000
  208      H      -6.7153872000    28.7625091000    14.4592106000
  209      C      -5.0981122000    24.2812281000    22.0424991000
  210      C      -6.9822355000    28.0529291000    16.2822866000
  211      H      -7.7517532000    28.5516516000    16.4366210000
  212      C       0.2395143000    17.5188567000    16.9703611000
  213      H       0.7455685000    16.8288239000    16.6102473000
  214      C      -3.7226232000    21.8442526000    22.3945746000
  215      C       1.9836855000    18.5376496000    13.1859513000
  216      H       2.3534314000    19.4318537000    13.2550803000
  217      H       1.1589815000    18.5995781000    12.6795413000
  218      C       1.6043328000    23.6329362000    13.7229066000
  219      C      -8.3344998000    27.6788667000    18.8014753000
  220      H      -8.9560271000    27.6372003000    18.0587406000
  221      H      -8.1318595000    28.6112743000    18.9783168000
  222      C       2.0543001000    24.6203121000    12.8772823000
  223      H       2.8499281000    24.4833826000    12.4142789000
  224      C      -0.1298204000    28.2068974000    12.3612264000
  225      H      -0.2896953000    27.8799665000    11.4625497000
  226      H       0.8163907000    28.4018597000    12.4528625000
  227      C      -5.1002817000    28.1541335000    12.4978768000
  228      H      -5.1962165000    29.1079117000    12.6425653000
  229      H      -5.9887669000    27.7797376000    12.3853412000
  230      C       1.3733079000    25.8066895000    12.6907948000
  231      H       1.7162713000    26.4449492000    12.1072176000
  232      C      -5.1212545000    23.6096422000    23.2401989000
  233      H      -5.6050962000    23.9661978000    23.9507805000
  234      C      -4.4406445000    22.4119826000    23.4170405000
  235      H      -4.4724203000    21.9863363000    24.2433730000
  236      C      -0.9460947000    29.4545021000    12.6152353000
  237      H      -1.8884471000    29.2232794000    12.6473883000
  238      H      -0.7003460000    29.8323149000    13.4753284000
  239      C      -2.5428418000    16.7728866000    20.0956341000
  240      H      -1.7917653000    16.1901601000    20.2869445000
  241      H      -2.9965622000    16.4213760000    19.3143158000
  242      C      -3.4327112000    16.7384245000    21.1872289000
  243      H      -3.0010043000    17.2108122000    21.9171024000
  244      H      -4.2081649000    17.2639215000    20.9364354000
  245      C       2.9484389000    17.6792727000    12.4239248000
  246      H       3.7672331000    17.5979428000    12.9383731000
  247      H       2.5701228000    16.7925241000    12.3306811000
  248      C      -4.3492101000    27.9412480000    11.2921387000
  249      H      -3.4268207000    28.1794358000    11.4770185000
  250      H      -4.3642186000    26.9888200000    11.1040436000
  251      C       4.0326763000    21.3066228000    15.0443955000
  252      H       3.5525881000    20.4700005000    15.1312087000
  253      H       4.4957167000    21.4479043000    15.8851968000
  254      C      -5.0108414000    26.6197147000    21.7129307000
  255      H      -4.1169431000    26.4359837000    22.0424991000
  256      H      -4.9420350000    26.7425311000    20.7531632000
  257      C      -1.6187394000    19.1139876000    23.6228198000
  258      H      -1.7832976000    18.5479570000    22.8527551000
  259      H      -0.7866694000    19.5889337000    23.4636624000
  260      C      -0.7165719000    30.4692471000    11.5397169000
  261      H       0.2300296000    30.6718658000    11.4995257000
  262      H      -0.9715670000    30.0843772000    10.6876620000
  263      C      -2.7338959000    20.1203734000    23.7257094000
  264      H      -3.5458762000    19.6785643000    24.0199095000
  265      H      -2.5031996000    20.7984111000    24.3816309000
  266      C      -4.7351552000    28.6178114000    10.0928313000
  267      H      -4.6148581000    29.5684925000    10.2407351000
  268      H      -5.6840073000    28.4682447000     9.9626116000
  269      C     -10.1104018000    27.5716122000    20.5168386000
  270      H     -10.7743186000    27.5685707000    19.8094723000
  271      H      -9.9516365000    28.4969396000    20.7579862000
  272      C      -4.8530568000    29.0316381000    21.9621166000
  273      H      -3.9953516000    29.0539079000    22.4138665000
  274      H      -4.6609906000    29.0321844000    21.0103874000
  275      C      -1.4671224000    31.7364310000    11.7342427000
  276      H      -1.2632405000    32.3420626000    11.0172304000
  277      H      -1.2136615000    32.1340436000    12.5702210000
  278      H      -2.4092677000    31.5514222000    11.7390656000
  279      C      -1.4534613000    18.2644945000    24.8044431000
  280      H      -1.2232017000    18.8379808000    25.5503930000
  281      H      -2.3161336000    17.8681040000    25.0037918000
  282      C      -8.9370110000    27.0571666000    20.0007827000
  283      H      -9.0934588000    26.1229675000    19.7966111000
  284      H      -8.2727607000    27.0848965000    20.7081490000
  285      C      -4.0455568000    28.2698704000     8.8243948000
  286      H      -4.3929851000    28.8125639000     8.1122056000
  287      H      -4.1955156000    27.3435468000     8.6234385000
  288      H      -3.1031033000    28.4288176000     8.9192462000
  289      C       3.0630770000    22.3193609000    14.9463288000
  290      H       2.4607815000    22.2044677000    15.6971017000
  291      H       3.5230017000    23.1627490000    15.0845868000
  292      C      -5.4104175000    27.7770339000    22.2450631000
  293      H      -5.3465065000    27.6670706000    23.2064383000
  294      H      -6.3568578000    27.8528282000    22.0424991000
  295      C      -0.5047448000    17.2201902000    24.7594289000
  296      H      -0.5287763000    16.7309424000    25.5841537000
  297      H       0.3726050000    17.5900992000    24.6324245000
  298      H      -0.7121490000    16.6303553000    24.0311631000
  299      C     -10.6925083000    26.8807138000    21.6968542000
  300      H     -11.4848317000    27.3433307000    21.9798008000
  301      H     -10.0532527000    26.8766981000    22.4122588000
  302      H     -10.9165414000    25.9766237000    21.4621372000
  303      C       3.2829891000    18.2103182000    11.0638523000
  304      H       3.9012579000    17.6153461000    10.6313943000
  305      H       3.6813057000    19.0789266000    11.1474501000
  306      H       2.4813927000    18.2735080000    10.5397582000
  307      C      -3.9105255000    15.5299636000    21.7113231000
  308      H      -3.1427448000    15.0139343000    22.0007002000
  309      H      -4.3221864000    15.0402541000    20.9830573000
  310      C      -4.8882034000    15.5608501000    22.8447168000
  311      H      -5.1037944000    14.6625922000    23.1051563000
  312      H      -5.6878401000    16.0127246000    22.5649856000
  313      H      -4.5006923000    16.0268442000    23.5890591000
  314      C       5.0592720000    21.0940882000    14.0347909000
  315      H       5.5307543000    21.9319059000    13.8997482000
  316      H       4.6221739000    20.8706665000    13.1988125000
  317      C       6.0960567000    20.0039850000    14.3434598000
  318      H       6.7081251000    19.9264582000    13.6087634000
  319      H       5.6482745000    19.1656585000    14.4768948000
  320      H       6.5786450000    20.2366323000    15.1392469000
  321      C      -5.4506334000    30.2284498000    22.2289866000
  322      H      -4.8489793000    30.9427823000    22.0071308000
  323      H      -5.6721214000    30.2739182000    23.1614240000
  324      H      -6.2511325000    30.3094702000    21.7048925000
 ----------------------------------------------------------------
 Nuclear Repulsion Energy =       38415.33959293 hartrees
 There are      586 alpha and      586 beta electrons
 Requested basis set is 6-31G(d,p)
 There are 1132 shells and 3220 basis functions

 Total QAlloc Memory Limit   2000 MB
 Mega-Array Size       188 MB
 MEM_STATIC part       192 MB

 A cutoff of  1.0D-12 yielded  74675 shell pairs
 There are    644450 function pairs
 Smallest overlap matrix eigenvalue = 1.72E-04

 Scale SEOQF with 1.000000e-03/1.000000e-03/1.000000e-03

 Standard Electronic Orientation quadrupole field applied
 Nucleus-field energy     =     0.0000000236 hartrees
 Can only be proccessed by the old fragmo guess code
 Guess MOs from converged MOs on fragments

QCSCRATCH   is /scratch/sanghita
QCFILEPREF  is /scratch/sanghita/qchem162539/

-----------------------------------------------------------------
 SCF on fragment 1 out of 2 in state 1
-----------------------------------------------------------------

/home/chance/software/ccats2023/exe/qcprog.exe /scratch/sanghita/qchem162539/Frg1s1.input /scratch/sanghita/qchem162539/Frg1s1/
                  Welcome to Q-Chem
     A Quantum Leap Into The Future Of Chemistry


 Q-Chem 6.1 (devel), Q-Chem, Inc., Pleasanton, CA (2022)

 E. Epifanovsky,  A. T. B. Gilbert,  Xintian Feng,  Joonho Lee,  Yuezhi Mao,  
 N. Mardirossian,  P. Pokhilko,  A. White,  M. Wormit,  M. P. Coons,  
 A. L. Dempwolff,  Zhengting Gan,  D. Hait,  P. R. Horn,  L. D. Jacobson,  
 I. Kaliman,  J. Kussmann,  A. W. Lange,  Ka Un Lao,  D. S. Levine,  Jie Liu,  
 S. C. McKenzie,  A. F. Morrison,  K. Nanda,  F. Plasser,  D. R. Rehn,  
 M. L. Vidal,  Zhi-Qiang You,  Ying Zhu,  B. Alam,  B. Albrecht,  
 A. Aldossary,  E. Alguire,  J. H. Andersen,  V. Athavale,  D. Barton,  
 K. Begam,  A. Behn,  N. Bellonzi,  Y. A. Bernard,  E. J. Berquist,  
 H. Burton,  A. Carreras,  K. Carter-Fenk,  Mathew Chow,  Romit Chakraborty,  
 Chandrima Chakravarty,  Junhan Chen,  A. D. Chien,  K. D. Closser,  
 V. Cofer-Shabica,  L. Cunha,  S. Dasgupta,  Jia Deng,  M. de Wergifosse,  
 M. Diedenhofen,  Hainam Do,  S. Ehlert,  Po-Tung Fang,  S. Fatehi,  
 Qingguo Feng,  T. Friedhoff,  Thomas Froitzheim,  B. Ganoe,  J. Gayvert,  
 Qinghui Ge,  G. Gidofalvi,  M. Goldey,  Montgomery Gray,  J. Gomes,  
 C. Gonzalez-Espinoza,  S. Gulania,  A. Gunina,  J. A. Gyamfi,  
 M. W. D. Hanson-Heine,  P. H. P. Harbach,  A. W. Hauser,  M. F. Herbst,  
 M. Hernandez Vera,  M. Hodecker,  Z. C. Holden,  S. Houck,  Xunkun Huang,  
 Kerwin Hui,  B. C. Huynh,  K. Ikeda,  M. Ivanov,  Hyunjun Ji,  Zuxin Jin,  
 Hanjie Jiang,  Subrata Jana,  B. Kaduk,  S. Kaehler,  R. Kang,  
 K. Khistyaev,  Jaehoon Kim,  Yongbin Kim,  P. Klunzinger,  Z. Koczor-Benda,  
 Joong Hoon Koh,  D. Kosenkov,  Saikiran Kotaru,  L. Koulias,  T. Kowalczyk,  
 C. M. Krauter,  K. Kue,  A. Kunitsa,  T. Kus,  A. Landau,  K. V. Lawler,  
 D. Lefrancois,  S. Lehtola,  Rain Li,  Shaozhi Li,  Yi-Pei Li,  
 Jiashu Liang,  M. Liebenthal,  Hung-Hsuan Lin,  You-Sheng Lin,  Fenglai Liu,  
 Kuan-Yu Liu,  M. Loipersberger,  A. Luenser,  C. Malbon,  A. Manjanath,  
 P. Manohar,  E. Mansoor,  S. F. Manzer,  Shan-Ping Mao,  A. V. Marenich,  
 T. Markovich,  S. Mason,  F. Matz,  S. A. Maurer,  P. F. McLaughlin,  
 M. F. S. J. Menger,  J.-M. Mewes,  S. A. Mewes,  P. Morgante,  
 Mohammad Mostafanejad,  J. W. Mullinax,  K. J. Oosterbaan,  G. Paran,  
 V. Parravicini,  Alexander C. Paul,  Suranjan K. Paul,  F. Pavosevic,  
 Zheng Pei,  S. Prager,  E. I. Proynov,  E. Ramos,  B. Rana,  A. E. Rask,  
 A. Rettig,  R. M. Richard,  F. Rob,  E. Rossomme,  T. Scheele,  M. Scheurer,  
 M. Schneider,  P. E. Schneider,  N. Sergueev,  S. M. Sharada,  
 Hengyuan Shen,  W. Skomorowski,  D. W. Small,  C. J. Stein,  Yingli Su,  
 Yu-Chuan Su,  E. J. Sundstrom,  Zhen Tao,  J. Thirman,  Hung-Yi Tsai,  
 T. Tsuchimochi,  N. M. Tubman,  C. Utku,  S. P. Veccham,  O. Vydrov,  
 J. Wenzel,  Jonathan Wong,  J. Witte,  A. Yamada,  Chou-Hsun Yang,  Kun Yao,  
 S. Yeganeh,  S. R. Yost,  A. Zech,  F. Zeller,  Igor Ying Zhang,  
 Xing Zhang,  Yu Zhang,  D. Zuev,  A. Aspuru-Guzik,  A. T. Bell,  
 N. A. Besley,  K. B. Bravaya,  B. R. Brooks,  D. Casanova,  Jeng-Da Chai,  
 Hsing-Ta Chen,  S. Coriani,  C. J. Cramer,  A. E. DePrince, III,  
 R. A. DiStasio Jr.,  A. Dreuw,  B. D. Dunietz,  T. R. Furlani,  
 W. A. Goddard III,  S. Grimme,  S. Hammes-Schiffer,  T. Head-Gordon,  
 W. J. Hehre,  Chao-Ping Hsu,  T.-C. Jagau,  Yousung Jung,  A. Klamt,  
 Jing Kong,  D. S. Lambrecht,  Xiangyuan Li,  WanZhen Liang,  N. J. Mayhall,  
 C. W. McCurdy,  J. B. Neaton,  T. Neudecker,  C. Ochsenfeld,  
 J. A. Parkhill,  R. Peverati,  V. A. Rassolov,  Haisheng Ren,  Yihan Shao,  
 L. V. Slipchenko,  R. P. Steele,  J. E. Subotnik,  A. J. W. Thom,  
 A. Tkatchenko,  D. G. Truhlar,  T. Van Voorhis,  Fan Wang,  
 T. A. Wesolowski,  K. B. Whaley,  H. L. Woodcock III,  P. M. Zimmerman,  
 S. Faraji,  P. M. W. Gill,  M. Head-Gordon,  J. M. Herbert,  A. I. Krylov

 Contributors to earlier versions of Q-Chem not listed above: 
 R. D. Adamson,  B. Austin,  R. Baer,  J. Baker,  G. J. O. Beran,  
 K. Brandhorst,  S. T. Brown,  E. F. C. Byrd,  Arup K. Chakraborty,  
 G. K. L. Chan,  Chun-Min Chang,  Yunqing Chen,  C.-L. Cheng,  
 Siu Hung Chien,  D. M. Chipman,  D. L. Crittenden,  H. Dachsel,  
 R. J. Doerksen,  A. D. Dutoi,  R. G. Edgar,  J. Fosso-Tande,  
 L. Fusti-Molnar,  D. Ghosh,  A. Ghysels,  A. Golubeva-Zadorozhnaya,  
 J. Gonthier,  M. S. Gordon,  S. R. Gwaltney,  G. Hawkins,  J. E. Herr,  
 A. Heyden,  S. Hirata,  E. G. Hohenstein,  G. Kedziora,  F. J. Keil,  
 C. Kelley,  Jihan Kim,  R. A. King,  R. Z. Khaliullin,  P. P. Korambath,  
 W. Kurlancheek,  A. Laurent,  A. M. Lee,  M. S. Lee,  S. V. Levchenko,  
 Ching Yeh Lin,  D. Liotard,  E. Livshits,  R. C. Lochan,  I. Lotan,  
 L. A. Martinez-Martinez,  P. E. Maslen,  N. Nair,  D. P. O'Neill,  
 D. Neuhauser,  E. Neuscamman,  C. M. Oana,  R. Olivares-Amaya,  R. Olson,  
 T. M. Perrine,  B. Peters,  P. A. Pieniazek,  A. Prociuk,  Y. M. Rhee,  
 J. Ritchie,  M. A. Rohrdanz,  E. Rosta,  N. J. Russ,  H. F. Schaefer III,  
 M. W. Schmidt,  N. E. Schultz,  S. Sharma,  N. Shenvi,  C. D. Sherrill,  
 A. C. Simmonett,  A. Sodt,  T. Stein,  D. Stuck,  K. S. Thanthiriwatte,  
 V. Vanovschi,  L. Vogt,  Tao Wang,  A. Warshel,  M. A. Watson,  
 C. F. Williams,  Q. Wu,  X. Xu,  Jun Yang,  W. Zhang,  Yan Zhao

   Please cite Q-Chem as follows:
  "Software for the frontiers of quantum chemistry:
   An overview of developments in the Q-Chem 5 package"
   J. Chem. Phys. 155, 084801 (2021)
   https://doi.org/10.1063/5.0055522 (open access)

 Q-Chem 6.1.0 for Intel X86 EM64T Linux

 Parts of Q-Chem use Armadillo 9.900.5 (Nocturnal Misbehaviour).
 http://arma.sourceforge.net/

 Q-Chem begins on Sat Feb 15 08:28:21 2025  

 Host: n159.cluster
0

     Scratch files written to /scratch/sanghita/qchem162539/Frg1s1//
 Processing $rem in /home/chance/software/ccats2023/config/preferences:
 Processing $rem in /home/sanghita/.qchemrc:

 Checking the input file for inconsistencies... 	...done.

--------------------------------------------------------------
User input:
--------------------------------------------------------------
$molecule
0 1
 7	14.0720775000	14.4772325000	13.2163359000
 8	9.7109512000	18.5476720000	16.9529985000
 8	12.6699426000	19.5523330000	12.3564035000
 7	14.1978809000	12.5091885000	15.1593425000
 1	13.6499394000	13.1366178000	14.9463288000
 7	10.6968001000	15.7849540000	16.5189328000
 8	17.7504349000	10.6360029000	13.6758024000
 7	12.1814359000	15.9435682000	14.6317116000
 1	12.5053443000	15.1481361000	14.6714205000
 7	13.1221249000	11.7865154000	17.1941461000
 7	12.1227943000	13.8442504000	16.4446593000
 8	16.4108133000	12.1313491000	10.2097075000
 8	15.1190570000	10.0272714000	18.5288177000
 8	11.1290189000	10.3657151000	18.8545277000
 8	8.2990082000	15.1419389000	18.2749697000
 8	13.5562040000	16.9047300000	9.6341685000
 7	13.1459147000	16.6060343000	12.5358173000
 7	15.4965237000	12.5285272000	13.1505830000
 6	11.0143706000	14.5319951000	16.8417490000
 6	14.1170956000	11.7921351000	16.3321237000
 6	15.9650751000	11.1214508000	15.1360316000
 6	11.0953689000	17.8358760000	15.1810458000
 6	14.8723675000	13.5645586000	12.5930497000
 6	12.4922182000	16.8341150000	13.6409164000
 6	11.8319416000	18.0811204000	14.0187143000
 6	10.2214631000	13.7490278000	17.7741864000
 6	15.2977586000	10.9475056000	16.3546309000
 6	13.7878495000	15.4471905000	12.3009395000
 6	11.3070969000	16.4441565000	15.5508055000
 6	12.1288558000	12.6755315000	17.1472027000
 6	15.7878894000	10.0968648000	17.3722738000
 6	11.8793668000	19.3617450000	13.4496060000
 6	10.9226761000	12.5554385000	17.9638892000
 6	17.1459011000	10.4155106000	14.8643386000
 6	8.9442376000	19.5584112000	17.6118137000
 1	9.4508233000	20.3839259000	17.6632585000
 1	8.1255381000	19.7310394000	17.1214803000
 6	10.3528342000	18.8531819000	15.7951684000
 6	15.2363235000	12.1179618000	14.3756128000
 6	14.3593810000	15.1246861000	11.0045300000
 6	15.0539669000	13.9171689000	11.1762271000
 6	10.4278783000	11.5483961000	18.7950447000
 6	11.1261322000	20.3329703000	14.0524750000
 1	11.1215417000	21.1866756000	13.6859306000
 6	16.9661325000	9.4174721000	17.0587819000
 1	17.3312499000	8.8448704000	17.6938039000
 6	15.7139749000	13.3261514000	10.1105154000
 6	17.5980982000	9.5544504000	15.8707280000
 1	18.3676159000	9.0557279000	15.7163935000
 6	10.3763483000	20.0885228000	15.1826535000
 1	9.8702941000	20.7785556000	15.5427672000
 6	14.3384859000	15.7631269000	9.7584399000
 6	8.6321772000	19.0697299000	18.9670633000
 1	8.2624313000	18.1755258000	18.8979343000
 1	9.4568811000	19.0078014000	19.4734733000
 6	9.0115299000	13.9744433000	18.4301079000
 6	18.9503624000	9.9285128000	13.3515393000
 1	19.5718897000	9.9701792000	14.0942739000
 1	18.7477221000	8.9961052000	13.1746977000
 6	8.5615626000	12.9870674000	19.2757322000
 1	7.7659346000	13.1239969000	19.7387356000
 6	10.7456831000	9.4004821000	19.7917881000
 1	10.9055579000	9.7274130000	20.6904649000
 1	9.7994720000	9.2055198000	19.7001520000
 6	15.7161443000	9.4532460000	19.6551378000
 1	15.8120791000	8.4994678000	19.5104492000
 1	16.6046296000	9.8276419000	19.7676734000
 6	9.2425547000	11.8006900000	19.4622197000
 1	8.8995913000	11.1624303000	20.0457969000
 6	15.7371172000	13.9977373000	8.9128156000
 1	16.2209588000	13.6411817000	8.2022340000
 6	15.0565071000	15.1953969000	8.7359741000
 1	15.0882829000	15.6210433000	7.9096416000
 6	11.5619574000	8.1528774000	19.5377793000
 1	12.5043098000	8.3841001000	19.5056263000
 1	11.3162087000	7.7750646000	18.6776862000
 6	13.1587044000	20.8344929000	12.0573805000
 1	12.4076280000	21.4172194000	11.8660700000
 1	13.6124249000	21.1860035000	12.8386987000
 6	14.0485738000	20.8689550000	10.9657856000
 1	13.6168669000	20.3965673000	10.2359122000
 1	14.8240276000	20.3434580000	11.2165791000
 6	7.6674238000	19.9281068000	19.7290897000
 1	6.8486296000	20.0094367000	19.2146415000
 1	8.0457399000	20.8148554000	19.8223335000
 6	14.9650728000	9.6661315000	20.8608758000
 1	14.0426834000	9.4279437000	20.6759960000
 1	14.9800813000	10.6185596000	21.0489710000
 6	6.5831864000	16.3007567000	17.1086190000
 1	7.0632746000	17.1373790000	17.0218059000
 1	6.1201459000	16.1594752000	16.2678177000
 6	15.6267041000	10.9876648000	10.4400838000
 1	14.7328058000	11.1713958000	10.1105154000
 1	15.5578977000	10.8648484000	11.3998513000
 6	12.2346021000	18.4933919000	8.5301948000
 1	12.3991602000	19.0594225000	9.3002595000
 1	11.4025321000	18.0184458000	8.6893522000
 6	11.3324346000	7.1381324000	20.6132976000
 1	10.3858331000	6.9355137000	20.6534889000
 1	11.5874296000	7.5230023000	21.4653525000
 6	13.3497586000	17.4870061000	8.4273051000
 1	14.1617389000	17.9288152000	8.1331050000
 1	13.1190623000	16.8089684000	7.7713836000
 6	15.3510178000	8.9895681000	22.0601833000
 1	15.2307208000	8.0388870000	21.9122794000
 1	16.2998699000	9.1391348000	22.1904030000
 6	20.7262645000	10.0357673000	11.6361760000
 1	21.3901812000	10.0388088000	12.3435423000
 1	20.5674991000	9.1104399000	11.3950284000
 6	15.4689195000	8.5757414000	10.1908980000
 1	14.6112143000	8.5534716000	9.7391481000
 1	15.2768533000	8.5751951000	11.1426272000
 6	12.0829851000	5.8709485000	20.4187719000
 1	11.8791032000	5.2653169000	21.1357841000
 1	11.8295242000	5.4733359000	19.5827935000
 1	13.0251303000	6.0559573000	20.4139489000
 6	12.0693240000	19.3428850000	7.3485715000
 1	11.8390644000	18.7693987000	6.6026215000
 1	12.9319963000	19.7392755000	7.1492228000
 6	19.5528736000	10.5502129000	12.1522319000
 1	19.7093214000	11.4844120000	12.3564035000
 1	18.8886234000	10.5224830000	11.4448655000
 6	14.6614194000	9.3375091000	23.3286197000
 1	15.0088477000	8.7948156000	24.0408090000
 1	14.8113782000	10.2638327000	23.5295761000
 1	13.7189659000	9.1785619000	23.2337683000
 6	7.5527856000	15.2880186000	17.2066857000
 1	8.1550812000	15.4029118000	16.4559129000
 1	7.0928610000	14.4446305000	17.0684278000
 6	16.0262801000	9.8303456000	9.9079514000
 1	15.9623692000	9.9403089000	8.9465763000
 1	16.9727204000	9.7545513000	10.1105154000
 6	11.1206074000	20.3871893000	7.3935857000
 1	11.1446390000	20.8764371000	6.5688609000
 1	10.2432576000	20.0172803000	7.5205901000
 1	11.3280117000	20.9770242000	8.1218515000
 6	21.3083710000	10.7266657000	10.4561603000
 1	22.1006944000	10.2640489000	10.1732138000
 1	20.6691154000	10.7306814000	9.7407558000
 1	21.5324041000	11.6307558000	10.6908773000
 6	7.3328736000	19.3970613000	21.0891623000
 1	6.7146047000	19.9920334000	21.5216203000
 1	6.9345570000	18.5284529000	21.0055644000
 1	8.1344700000	19.3338715000	21.6132564000
 6	14.5263882000	22.0774159000	10.4416915000
 1	13.7586074000	22.5934452000	10.1523143000
 1	14.9380491000	22.5671254000	11.1699573000
 6	15.5040661000	22.0465294000	9.3082977000
 1	15.7196571000	22.9447873000	9.0478583000
 1	16.3037028000	21.5946549000	9.5880289000
 1	15.1165550000	21.5805353000	8.5639554000
 6	5.5565906000	16.5132914000	18.1182237000
 1	5.0851084000	15.6754736000	18.2532664000
 1	5.9936888000	16.7367130000	18.9542021000
 6	4.5198059000	17.6033945000	17.8095548000
 1	3.9077376000	17.6809213000	18.5442511000
 1	4.9675882000	18.4417210000	17.6761198000
 1	4.0372176000	17.3707472000	17.0137677000
 6	16.0664960000	7.3789297000	9.9240279000
 1	15.4648420000	6.6645972000	10.1458837000
 1	16.2879840000	7.3334613000	8.9915905000
 1	16.8669951000	7.2979093000	10.4481221000
$end

$rem
METHOD		WB97X-D
BASIS		6-31G**
SYM_IGNORE		TRUE
SCF_PRINT_FRGM		TRUE
CIS_N_ROOTS		12
CIS_SINGLETS		1
CIS_TRIPLETS		0
RPA		2
!required keywords
JOBTYPE		SP
SYM_IGNORE		TRUE
SUBSYSTEM		TRUE
SAVE_SUBSYSTEM		TRUE
GEN_SCFMAN		0
ECP		0
$end
--------------------------------------------------------------
 ----------------------------------------------------------------
             Standard Nuclear Orientation (Angstroms)
    I     Atom           X                Y                Z
 ----------------------------------------------------------------
    1      N      14.0720775000    14.4772325000    13.2163359000
    2      O       9.7109512000    18.5476720000    16.9529985000
    3      O      12.6699426000    19.5523330000    12.3564035000
    4      N      14.1978809000    12.5091885000    15.1593425000
    5      H      13.6499394000    13.1366178000    14.9463288000
    6      N      10.6968001000    15.7849540000    16.5189328000
    7      O      17.7504349000    10.6360029000    13.6758024000
    8      N      12.1814359000    15.9435682000    14.6317116000
    9      H      12.5053443000    15.1481361000    14.6714205000
   10      N      13.1221249000    11.7865154000    17.1941461000
   11      N      12.1227943000    13.8442504000    16.4446593000
   12      O      16.4108133000    12.1313491000    10.2097075000
   13      O      15.1190570000    10.0272714000    18.5288177000
   14      O      11.1290189000    10.3657151000    18.8545277000
   15      O       8.2990082000    15.1419389000    18.2749697000
   16      O      13.5562040000    16.9047300000     9.6341685000
   17      N      13.1459147000    16.6060343000    12.5358173000
   18      N      15.4965237000    12.5285272000    13.1505830000
   19      C      11.0143706000    14.5319951000    16.8417490000
   20      C      14.1170956000    11.7921351000    16.3321237000
   21      C      15.9650751000    11.1214508000    15.1360316000
   22      C      11.0953689000    17.8358760000    15.1810458000
   23      C      14.8723675000    13.5645586000    12.5930497000
   24      C      12.4922182000    16.8341150000    13.6409164000
   25      C      11.8319416000    18.0811204000    14.0187143000
   26      C      10.2214631000    13.7490278000    17.7741864000
   27      C      15.2977586000    10.9475056000    16.3546309000
   28      C      13.7878495000    15.4471905000    12.3009395000
   29      C      11.3070969000    16.4441565000    15.5508055000
   30      C      12.1288558000    12.6755315000    17.1472027000
   31      C      15.7878894000    10.0968648000    17.3722738000
   32      C      11.8793668000    19.3617450000    13.4496060000
   33      C      10.9226761000    12.5554385000    17.9638892000
   34      C      17.1459011000    10.4155106000    14.8643386000
   35      C       8.9442376000    19.5584112000    17.6118137000
   36      H       9.4508233000    20.3839259000    17.6632585000
   37      H       8.1255381000    19.7310394000    17.1214803000
   38      C      10.3528342000    18.8531819000    15.7951684000
   39      C      15.2363235000    12.1179618000    14.3756128000
   40      C      14.3593810000    15.1246861000    11.0045300000
   41      C      15.0539669000    13.9171689000    11.1762271000
   42      C      10.4278783000    11.5483961000    18.7950447000
   43      C      11.1261322000    20.3329703000    14.0524750000
   44      H      11.1215417000    21.1866756000    13.6859306000
   45      C      16.9661325000     9.4174721000    17.0587819000
   46      H      17.3312499000     8.8448704000    17.6938039000
   47      C      15.7139749000    13.3261514000    10.1105154000
   48      C      17.5980982000     9.5544504000    15.8707280000
   49      H      18.3676159000     9.0557279000    15.7163935000
   50      C      10.3763483000    20.0885228000    15.1826535000
   51      H       9.8702941000    20.7785556000    15.5427672000
   52      C      14.3384859000    15.7631269000     9.7584399000
   53      C       8.6321772000    19.0697299000    18.9670633000
   54      H       8.2624313000    18.1755258000    18.8979343000
   55      H       9.4568811000    19.0078014000    19.4734733000
   56      C       9.0115299000    13.9744433000    18.4301079000
   57      C      18.9503624000     9.9285128000    13.3515393000
   58      H      19.5718897000     9.9701792000    14.0942739000
   59      H      18.7477221000     8.9961052000    13.1746977000
   60      C       8.5615626000    12.9870674000    19.2757322000
   61      H       7.7659346000    13.1239969000    19.7387356000
   62      C      10.7456831000     9.4004821000    19.7917881000
   63      H      10.9055579000     9.7274130000    20.6904649000
   64      H       9.7994720000     9.2055198000    19.7001520000
   65      C      15.7161443000     9.4532460000    19.6551378000
   66      H      15.8120791000     8.4994678000    19.5104492000
   67      H      16.6046296000     9.8276419000    19.7676734000
   68      C       9.2425547000    11.8006900000    19.4622197000
   69      H       8.8995913000    11.1624303000    20.0457969000
   70      C      15.7371172000    13.9977373000     8.9128156000
   71      H      16.2209588000    13.6411817000     8.2022340000
   72      C      15.0565071000    15.1953969000     8.7359741000
   73      H      15.0882829000    15.6210433000     7.9096416000
   74      C      11.5619574000     8.1528774000    19.5377793000
   75      H      12.5043098000     8.3841001000    19.5056263000
   76      H      11.3162087000     7.7750646000    18.6776862000
   77      C      13.1587044000    20.8344929000    12.0573805000
   78      H      12.4076280000    21.4172194000    11.8660700000
   79      H      13.6124249000    21.1860035000    12.8386987000
   80      C      14.0485738000    20.8689550000    10.9657856000
   81      H      13.6168669000    20.3965673000    10.2359122000
   82      H      14.8240276000    20.3434580000    11.2165791000
   83      C       7.6674238000    19.9281068000    19.7290897000
   84      H       6.8486296000    20.0094367000    19.2146415000
   85      H       8.0457399000    20.8148554000    19.8223335000
   86      C      14.9650728000     9.6661315000    20.8608758000
   87      H      14.0426834000     9.4279437000    20.6759960000
   88      H      14.9800813000    10.6185596000    21.0489710000
   89      C       6.5831864000    16.3007567000    17.1086190000
   90      H       7.0632746000    17.1373790000    17.0218059000
   91      H       6.1201459000    16.1594752000    16.2678177000
   92      C      15.6267041000    10.9876648000    10.4400838000
   93      H      14.7328058000    11.1713958000    10.1105154000
   94      H      15.5578977000    10.8648484000    11.3998513000
   95      C      12.2346021000    18.4933919000     8.5301948000
   96      H      12.3991602000    19.0594225000     9.3002595000
   97      H      11.4025321000    18.0184458000     8.6893522000
   98      C      11.3324346000     7.1381324000    20.6132976000
   99      H      10.3858331000     6.9355137000    20.6534889000
  100      H      11.5874296000     7.5230023000    21.4653525000
  101      C      13.3497586000    17.4870061000     8.4273051000
  102      H      14.1617389000    17.9288152000     8.1331050000
  103      H      13.1190623000    16.8089684000     7.7713836000
  104      C      15.3510178000     8.9895681000    22.0601833000
  105      H      15.2307208000     8.0388870000    21.9122794000
  106      H      16.2998699000     9.1391348000    22.1904030000
  107      C      20.7262645000    10.0357673000    11.6361760000
  108      H      21.3901812000    10.0388088000    12.3435423000
  109      H      20.5674991000     9.1104399000    11.3950284000
  110      C      15.4689195000     8.5757414000    10.1908980000
  111      H      14.6112143000     8.5534716000     9.7391481000
  112      H      15.2768533000     8.5751951000    11.1426272000
  113      C      12.0829851000     5.8709485000    20.4187719000
  114      H      11.8791032000     5.2653169000    21.1357841000
  115      H      11.8295242000     5.4733359000    19.5827935000
  116      H      13.0251303000     6.0559573000    20.4139489000
  117      C      12.0693240000    19.3428850000     7.3485715000
  118      H      11.8390644000    18.7693987000     6.6026215000
  119      H      12.9319963000    19.7392755000     7.1492228000
  120      C      19.5528736000    10.5502129000    12.1522319000
  121      H      19.7093214000    11.4844120000    12.3564035000
  122      H      18.8886234000    10.5224830000    11.4448655000
  123      C      14.6614194000     9.3375091000    23.3286197000
  124      H      15.0088477000     8.7948156000    24.0408090000
  125      H      14.8113782000    10.2638327000    23.5295761000
  126      H      13.7189659000     9.1785619000    23.2337683000
  127      C       7.5527856000    15.2880186000    17.2066857000
  128      H       8.1550812000    15.4029118000    16.4559129000
  129      H       7.0928610000    14.4446305000    17.0684278000
  130      C      16.0262801000     9.8303456000     9.9079514000
  131      H      15.9623692000     9.9403089000     8.9465763000
  132      H      16.9727204000     9.7545513000    10.1105154000
  133      C      11.1206074000    20.3871893000     7.3935857000
  134      H      11.1446390000    20.8764371000     6.5688609000
  135      H      10.2432576000    20.0172803000     7.5205901000
  136      H      11.3280117000    20.9770242000     8.1218515000
  137      C      21.3083710000    10.7266657000    10.4561603000
  138      H      22.1006944000    10.2640489000    10.1732138000
  139      H      20.6691154000    10.7306814000     9.7407558000
  140      H      21.5324041000    11.6307558000    10.6908773000
  141      C       7.3328736000    19.3970613000    21.0891623000
  142      H       6.7146047000    19.9920334000    21.5216203000
  143      H       6.9345570000    18.5284529000    21.0055644000
  144      H       8.1344700000    19.3338715000    21.6132564000
  145      C      14.5263882000    22.0774159000    10.4416915000
  146      H      13.7586074000    22.5934452000    10.1523143000
  147      H      14.9380491000    22.5671254000    11.1699573000
  148      C      15.5040661000    22.0465294000     9.3082977000
  149      H      15.7196571000    22.9447873000     9.0478583000
  150      H      16.3037028000    21.5946549000     9.5880289000
  151      H      15.1165550000    21.5805353000     8.5639554000
  152      C       5.5565906000    16.5132914000    18.1182237000
  153      H       5.0851084000    15.6754736000    18.2532664000
  154      H       5.9936888000    16.7367130000    18.9542021000
  155      C       4.5198059000    17.6033945000    17.8095548000
  156      H       3.9077376000    17.6809213000    18.5442511000
  157      H       4.9675882000    18.4417210000    17.6761198000
  158      H       4.0372176000    17.3707472000    17.0137677000
  159      C      16.0664960000     7.3789297000     9.9240279000
  160      H      15.4648420000     6.6645972000    10.1458837000
  161      H      16.2879840000     7.3334613000     8.9915905000
  162      H      16.8669951000     7.2979093000    10.4481221000
 ----------------------------------------------------------------
 Nuclear Repulsion Energy =       13987.24749538 hartrees
 There are      293 alpha and      293 beta electrons
 Requested basis set is 6-31G(d,p)
 There are 566 shells and 1610 basis functions

 Total QAlloc Memory Limit   2000 MB
 Mega-Array Size       188 MB
 MEM_STATIC part       192 MB

 A cutoff of  1.0D-12 yielded  35166 shell pairs
 There are    310040 function pairs
 Smallest overlap matrix eigenvalue = 1.72E-04

 Scale SEOQF with 1.000000e-03/1.000000e-03/1.000000e-03

 Standard Electronic Orientation quadrupole field applied
 Nucleus-field energy     =    -0.0000000199 hartrees
 Guess from superposition of atomic densities
 Warning:  Energy on first SCF cycle will be non-variational
 SAD guess density has 586.000001 electrons
 Long-range K will be added via erf
 Coulomb attenuation parameter = 0.2 bohr**(-1)
 A restricted hybrid HF-DFT SCF calculation will be
 performed using Pulay DIIS extrapolation
 Exchange:     0.2220 Hartree-Fock + 1.0000 wB97X-D + LR-HF
 Correlation:  1.0000 wB97X-D
 Using SG-2 standard quadrature grid
 Dispersion:   Grimme D
 SCF converges when DIIS error is below 1.0E-08
 using 8 threads for integral computing
 -------------------------------------------------------
 OpenMP Integral computing Module                
 Release: version 1.0, May 2013, Q-Chem Inc. Pittsburgh 
 -------------------------------------------------------
 ---------------------------------------
  Cycle       Energy         DIIS Error
 ---------------------------------------
    1   -3561.2962537231      2.15E-02
    2   -3524.6210831542      1.78E-03
    3   -3525.0470787434      1.43E-03
    4   -3525.5681867917      2.54E-04
    5   -3525.5838782898      1.12E-04
    6   -3525.5874768194      2.53E-05
    7   -3525.5876853936      1.04E-05
    8   -3525.5877312500      4.28E-06
    9   -3525.5877419370      1.68E-06
   10   -3525.5877444393      7.31E-07
   11   -3525.5877448979      3.63E-07
   12   -3525.5877450697      1.67E-07
   13   -3525.5877451458      1.02E-07
   14   -3525.5877451867      6.45E-08
   15   -3525.5877452025      2.87E-08
   16   -3525.5877452057      1.81E-08
   17   -3525.5877452067      7.76E-09 Convergence criterion met
 ---------------------------------------
 SCF time:  CPU 8630.59 s  wall 1152.94 s
 SCF   energy in the final basis set = -3525.58774521
 Total energy in the final basis set = -3525.58774521

 CIS/TDDFT memory preview:
 --------------------------
	NOV = NOa*NVa + NOb*NVb = 771762
	NRoots = 12, max iter = 30, max vectors = 360
	Size of each subspace vector: 5.89 Mb
	Davidson algorithm may add up to 2 x NOV x NRoots (= 141.3 Mb) per iteration
	Max memory = 4239.4 Mb (worst case scenario)
	Currently available memory = 2000.0 Mb

	In case of problems:
	(a) increase memory (MEM_TOTAL = 4240 can hold 360 subspace vectors), or
	(b) request fewer states (CIS_N_ROOTS = 5 will fit in current MEM_TOTAL), or
	(c) reduce MAX_CIS_SUBSPACE (= 169 will fit in current MEM_TOTAL).
	Reducing MAX_CIS_SUBSPACE may hamper convergence.

 CIS energy converged when residual is below 10e- 6

 Direct TDDFT calculation will be performed
 Exchange:     0.2220 Hartree-Fock + 1.0000 wB97X-D + LR-HF
 Correlation:  1.0000 wB97X-D
 Using SG-2 standard quadrature grid
 Dispersion:   Grimme D
 ---------------------------------------------------
 Iter    Rts Conv    Rts Left    Ttl Dev     Max Dev
 ---------------------------------------------------
   1         0          12      0.002290    0.000301
   2         0          12      0.000579    0.000070
   3         0          12      0.000526    0.000062
   4         0          12      0.000378    0.000046
   5         0          12      0.000260    0.000042
   6         0          12      0.000191    0.000026
   7         0          12      0.000197    0.000065
   8         0          12      0.000106    0.000027
   9         2          10      0.000077    0.000024
  10         2          10      0.000045    0.000012
  11         3           9      0.000036    0.000013
  12         6           6      0.000021    0.000007
  13         8           4      0.000017    0.000006
  14        10           2      0.000010    0.000003
  15        11           1      0.000009    0.000003
  16        11           1      0.000007    0.000001
  17        11           1      0.000007    0.000001
  18        12           0      0.000006    0.000001    Roots Converged
 ---------------------------------------------------
 
 ---------------------------------------------------
             TDDFT Excitation Energies              
 ---------------------------------------------------

 Excited state   1: excitation energy (eV) =    1.7761
 Total energy for state  1:                 -3525.52247327 au
    Multiplicity: Singlet 
    Trans. Mom.:  2.1016 X  -0.1538 Y  -2.6746 Z
    Strength   :     0.5045141223
    X: D(  293) --> V(    1) amplitude =  0.9481

 Excited state   2: excitation energy (eV) =    1.8012
 Total energy for state  2:                 -3525.52155227 au
    Multiplicity: Singlet 
    Trans. Mom.:  1.2400 X  -2.8880 Y   1.2268 Z
    Strength   :     0.5023259638
    X: D(  289) --> V(    1) amplitude =  0.2392
    X: D(  293) --> V(    1) amplitude = -0.2151
    X: D(  293) --> V(    2) amplitude =  0.9286

 Excited state   3: excitation energy (eV) =    3.3937
 Total energy for state  3:                 -3525.46302727 au
    Multiplicity: Singlet 
    Trans. Mom.: -0.9015 X   0.2954 Y  -0.8164 Z
    Strength   :     0.1302400557
    X: D(  289) --> V(    1) amplitude =  0.2768
    X: D(  290) --> V(    1) amplitude =  0.4585
    X: D(  292) --> V(    1) amplitude =  0.3078
    X: D(  292) --> V(    2) amplitude =  0.5149
    X: D(  293) --> V(    3) amplitude = -0.4449

 Excited state   4: excitation energy (eV) =    3.4424
 Total energy for state  4:                 -3525.46124052 au
    Multiplicity: Singlet 
    Trans. Mom.: -0.5356 X   1.9513 Y  -0.4906 Z
    Strength   :     0.3656089067
    X: D(  286) --> V(    1) amplitude = -0.2571
    X: D(  289) --> V(    1) amplitude =  0.6939
    X: D(  290) --> V(    1) amplitude = -0.2382
    X: D(  291) --> V(    1) amplitude = -0.3134
    X: D(  291) --> V(    2) amplitude = -0.2924

 Excited state   5: excitation energy (eV) =    3.4892
 Total energy for state  5:                 -3525.45951931 au
    Multiplicity: Singlet 
    Trans. Mom.:  0.6595 X   0.0369 Y  -0.0688 Z
    Strength   :     0.0377055891
    X: D(  287) --> V(    1) amplitude = -0.3985
    X: D(  292) --> V(    1) amplitude =  0.6611
    X: D(  292) --> V(    2) amplitude = -0.4740
    X: D(  293) --> V(    3) amplitude =  0.2542

 Excited state   6: excitation energy (eV) =    3.6056
 Total energy for state  6:                 -3525.45524213 au
    Multiplicity: Singlet 
    Trans. Mom.: -1.0739 X   0.9186 Y   0.8460 Z
    Strength   :     0.2396385118
    X: D(  287) --> V(    1) amplitude = -0.2236
    X: D(  288) --> V(    1) amplitude = -0.2805
    X: D(  289) --> V(    2) amplitude = -0.2631
    X: D(  291) --> V(    1) amplitude =  0.7032
    X: D(  291) --> V(    2) amplitude = -0.4009

 Excited state   7: excitation energy (eV) =    3.6278
 Total energy for state  7:                 -3525.45442450 au
    Multiplicity: Singlet 
    Trans. Mom.: -0.2444 X  -0.0020 Y  -0.0012 Z
    Strength   :     0.0053092658
    X: D(  290) --> V(    1) amplitude =  0.6588
    X: D(  292) --> V(    1) amplitude = -0.4684
    X: D(  292) --> V(    2) amplitude = -0.4515

 Excited state   8: excitation energy (eV) =    3.6901
 Total energy for state  8:                 -3525.45213632 au
    Multiplicity: Singlet 
    Trans. Mom.:  0.0661 X  -0.3101 Y   0.2491 Z
    Strength   :     0.0146999607
    X: D(  286) --> V(    1) amplitude = -0.2688
    X: D(  288) --> V(    2) amplitude =  0.2137
    X: D(  289) --> V(    1) amplitude =  0.3457
    X: D(  291) --> V(    1) amplitude =  0.3822
    X: D(  291) --> V(    2) amplitude =  0.6482

 Excited state   9: excitation energy (eV) =    3.7978
 Total energy for state  9:                 -3525.44817808 au
    Multiplicity: Singlet 
    Trans. Mom.:  0.7780 X   0.0365 Y  -0.6672 Z
    Strength   :     0.0978671810
    X: D(  285) --> V(    1) amplitude =  0.2667
    X: D(  288) --> V(    1) amplitude =  0.5127
    X: D(  289) --> V(    2) amplitude =  0.2391
    X: D(  292) --> V(    2) amplitude =  0.3222
    X: D(  293) --> V(    3) amplitude =  0.4924

 Excited state  10: excitation energy (eV) =    3.8278
 Total energy for state 10:                 -3525.44707594 au
    Multiplicity: Singlet 
    Trans. Mom.: -0.3269 X  -0.0345 Y   0.7540 Z
    Strength   :     0.0634465842
    X: D(  285) --> V(    1) amplitude = -0.2588
    X: D(  287) --> V(    1) amplitude = -0.2493
    X: D(  288) --> V(    1) amplitude = -0.4258
    X: D(  291) --> V(    1) amplitude = -0.2446
    X: D(  291) --> V(    2) amplitude =  0.2513
    X: D(  292) --> V(    2) amplitude =  0.2287
    X: D(  293) --> V(    3) amplitude =  0.4933

 Excited state  11: excitation energy (eV) =    3.8763
 Total energy for state 11:                 -3525.44529366 au
    Multiplicity: Singlet 
    Trans. Mom.:  0.1927 X  -0.0550 Y  -0.2181 Z
    Strength   :     0.0083298285
    X: D(  287) --> V(    1) amplitude = -0.6786
    X: D(  290) --> V(    1) amplitude = -0.3327
    X: D(  292) --> V(    1) amplitude = -0.3503
    X: D(  293) --> V(    3) amplitude = -0.3130

 Excited state  12: excitation energy (eV) =    4.0033
 Total energy for state 12:                 -3525.44062664 au
    Multiplicity: Singlet 
    Trans. Mom.:  0.4869 X   0.2734 Y  -0.9042 Z
    Strength   :     0.1107691743
    X: D(  284) --> V(    1) amplitude =  0.2843
    X: D(  285) --> V(    1) amplitude = -0.3807
    X: D(  289) --> V(    2) amplitude =  0.7042
    X: D(  290) --> V(    2) amplitude =  0.2329
 
 ---------------------------------------------------
  SETman timing summary (seconds)
  CPU time             52656.01s
  System time              0.04s
  Wall time             6950.14s
 
 --------------------------------------------------------------
 
                    Orbital Energies (a.u.)
 --------------------------------------------------------------
 
 Alpha MOs
 -- Occupied --
-19.2909 -19.2900 -19.2872 -19.2812 -19.2811 -19.2743 -19.2594 -19.2560
-14.4784 -14.4777 -14.4394 -14.4394 -14.4381 -14.4367 -14.4239 -14.4234
-10.3747 -10.3733 -10.3732 -10.3719 -10.3594 -10.3585 -10.3555 -10.3554
-10.3549 -10.3543 -10.3543 -10.3533 -10.3526 -10.3507 -10.3414 -10.3381
-10.3153 -10.3139 -10.3122 -10.3109 -10.3066 -10.3044 -10.3037 -10.3037
-10.3030 -10.3026 -10.2915 -10.2911 -10.2898 -10.2893 -10.2817 -10.2809
-10.2801 -10.2793 -10.2763 -10.2760 -10.2749 -10.2741 -10.2736 -10.2724
-10.2547 -10.2543 -10.2528 -10.2523 -10.2501 -10.2473 -10.2460 -10.2426
-10.2426 -10.2413 -10.2406 -10.2391 -10.2388 -10.2384 -10.2374 -10.2356
-10.2312 -10.2310 -10.2310 -10.2306 -10.2302 -10.2270 -10.2221 -10.2219
 -1.1736  -1.1614  -1.1599  -1.1580  -1.1560  -1.1558  -1.1534  -1.1330
 -1.1196  -1.1157  -1.0727  -1.0552  -1.0326  -0.9964  -0.9879  -0.9652
 -0.9644  -0.9629  -0.9545  -0.9478  -0.9437  -0.9434  -0.9425  -0.9371
 -0.9287  -0.9246  -0.9218  -0.9161  -0.8875  -0.8844  -0.8794  -0.8774
 -0.8741  -0.8671  -0.8602  -0.8596  -0.8574  -0.8541  -0.8498  -0.8459
 -0.8369  -0.8240  -0.8195  -0.8182  -0.8045  -0.7870  -0.7852  -0.7819
 -0.7749  -0.7679  -0.7647  -0.7627  -0.7614  -0.7507  -0.7479  -0.7434
 -0.7410  -0.7265  -0.7172  -0.7154  -0.7114  -0.7085  -0.7063  -0.7057
 -0.7032  -0.7020  -0.6963  -0.6918  -0.6903  -0.6889  -0.6856  -0.6801
 -0.6730  -0.6640  -0.6604  -0.6447  -0.6366  -0.6317  -0.6283  -0.6272
 -0.6220  -0.6194  -0.6176  -0.6164  -0.6139  -0.6108  -0.6100  -0.6038
 -0.6021  -0.6019  -0.5982  -0.5911  -0.5841  -0.5789  -0.5777  -0.5742
 -0.5737  -0.5706  -0.5695  -0.5672  -0.5646  -0.5605  -0.5589  -0.5579
 -0.5566  -0.5564  -0.5537  -0.5527  -0.5502  -0.5477  -0.5457  -0.5452
 -0.5435  -0.5423  -0.5382  -0.5374  -0.5358  -0.5340  -0.5312  -0.5295
 -0.5240  -0.5215  -0.5167  -0.5138  -0.5090  -0.5082  -0.5060  -0.5026
 -0.5006  -0.4963  -0.4951  -0.4941  -0.4935  -0.4917  -0.4902  -0.4888
 -0.4859  -0.4850  -0.4839  -0.4826  -0.4815  -0.4806  -0.4788  -0.4778
 -0.4764  -0.4717  -0.4675  -0.4660  -0.4628  -0.4615  -0.4601  -0.4564
 -0.4551  -0.4515  -0.4475  -0.4465  -0.4456  -0.4395  -0.4355  -0.4345
 -0.4333  -0.4321  -0.4298  -0.4272  -0.4254  -0.4246  -0.4228  -0.4209
 -0.4193  -0.4171  -0.4165  -0.4164  -0.4149  -0.4143  -0.4131  -0.4122
 -0.4099  -0.4097  -0.4071  -0.4041  -0.4019  -0.4008  -0.3959  -0.3944
 -0.3929  -0.3914  -0.3900  -0.3849  -0.3826  -0.3811  -0.3778  -0.3706
 -0.3698  -0.3659  -0.3645  -0.3629  -0.3587  -0.3520  -0.3369  -0.3321
 -0.3307  -0.3299  -0.3273  -0.3244  -0.3187  -0.3098  -0.3043  -0.2934
 -0.2894  -0.2765  -0.2711  -0.2673  -0.1988
 -- Virtual --
[...]
  1.3265   1.3308   1.3311   1.3324   1.3339   1.3385   1.3436   1.3455
  1.3504   1.3538   1.3555   1.3579   1.3597   1.3603   1.3622   1.3661
  1.3685   1.3700   1.3761   1.3771   1.3810   1.3885   1.3908   1.3969
  1.4008   1.4015   1.4048   1.4104   1.4139   1.4176   1.4201   1.4207
  1.4224   1.4245   1.4277   1.4303   1.4321   1.4337   1.4372   1.4409
  1.4414   1.4460   1.4478   1.4507   1.4553   1.4626   1.4645   1.4699
  1.4707   1.4747   1.4758   1.4813   1.4838   1.4843   1.4861   1.4915
  1.4964   1.4989   1.5027   1.5055   1.5080   1.5105   1.5137   1.5190
  1.5195   1.5258   1.5271   1.5310   1.5313   1.5349   1.5371   1.5403
  1.5434   1.5499   1.5518   1.5535   1.5569   1.5620   1.5664   1.5689
  1.5720   1.5803   1.5851   1.5921   1.5975   1.6008   1.6040   1.6068
  1.6091   1.6116   1.6134   1.6147   1.6204   1.6253   1.6382   1.6425
  1.6522   1.6539   1.6579   1.6672   1.6706   1.6769   1.6838   1.6848
  1.6950   1.6997   1.7017   1.7082   1.7146   1.7189   1.7209   1.7263
  1.7282   1.7308   1.7312   1.7373   1.7389   1.7430   1.7440   1.7455
  1.7485   1.7502   1.7537   1.7586   1.7634   1.7668   1.7701   1.7725
  1.7734   1.7774   1.7799   1.7858   1.7920   1.7938   1.7963   1.7995
  1.8027   1.8087   1.8096   1.8109   1.8130   1.8142   1.8162   1.8184
  1.8199   1.8240   1.8263   1.8270   1.8272   1.8305   1.8322   1.8349
  1.8389   1.8413   1.8442   1.8468   1.8474   1.8526   1.8547   1.8584
  1.8656   1.8662   1.8693   1.8723   1.8795   1.8849   1.8874   1.8916
  1.8929   1.8942   1.8997   1.9016   1.9062   1.9109   1.9133   1.9187
  1.9252   1.9310   1.9327   1.9382   1.9408   1.9527   1.9558   1.9582
  1.9618   1.9635   1.9690   1.9705   1.9738   1.9804   1.9880   1.9909
  1.9922   1.9949   1.9988   2.0018   2.0037   2.0054   2.0078   2.0084
  2.0111   2.0139   2.0161   2.0176   2.0237   2.0272   2.0312   2.0344
  2.0348   2.0370   2.0414   2.0444   2.0464   2.0497   2.0509   2.0518
  2.0565   2.0588   2.0603   2.0677   2.0712   2.0724   2.0777   2.0798
  2.0817   2.0833   2.0877   2.0907   2.0941   2.0949   2.0977   2.0999
  2.1015   2.1041   2.1070   2.1074   2.1102   2.1112   2.1136   2.1203
  2.1213   2.1247   2.1304   2.1336   2.1409   2.1427   2.1481   2.1539
  2.1545   2.1582   2.1639   2.1662   2.1700   2.1726   2.1758   2.1785
  2.1822   2.1871   2.1929   2.1947   2.1970   2.2008   2.2071   2.2083
  2.2104   2.2122   2.2145   2.2148   2.2152   2.2155   2.2188   2.2209
  2.2210   2.2212   2.2218   2.2242   2.2253   2.2294   2.2310   2.2400
  2.2451   2.2570   2.2623   2.2707   2.2789   2.2860   2.2890   2.2922
  2.2971   2.3095   2.3150   2.3185   2.3196   2.3284   2.3300   2.3321
  2.3338   2.3357   2.3369   2.3383   2.3414   2.3442   2.3460   2.3466
  2.3480   2.3489   2.3516   2.3534   2.3547   2.3569   2.3601   2.3630
  2.3640   2.3679   2.3691   2.3702   2.3712   2.3747   2.3762   2.3785
  2.3814   2.3822   2.3830   2.3851   2.3861   2.3871   2.3880   2.3889
  2.3895   2.3899   2.3909   2.3925   2.3930   2.3953   2.3974   2.3987
  2.4040   2.4055   2.4072   2.4088   2.4120   2.4159   2.4167   2.4178
  2.4212   2.4231   2.4236   2.4260   2.4283   2.4309   2.4331   2.4350
  2.4373   2.4425   2.4442   2.4459   2.4492   2.4500   2.4541   2.4548
  2.4563   2.4590   2.4613   2.4621   2.4636   2.4642   2.4660   2.4712
  2.4726   2.4759   2.4768   2.4800   2.4802   2.4838   2.4896   2.4929
  2.4938   2.4996   2.5001   2.5017   2.5027   2.5062   2.5099   2.5103
  2.5123   2.5127   2.5144   2.5152   2.5199   2.5216   2.5238   2.5249
  2.5259   2.5294   2.5345   2.5371   2.5398   2.5416   2.5422   2.5464
  2.5471   2.5479   2.5483   2.5503   2.5528   2.5548   2.5580   2.5592
  2.5612   2.5619   2.5648   2.5663   2.5714   2.5738   2.5780   2.5828
  2.5836   2.5960   2.5966   2.5979   2.6028   2.6047   2.6094   2.6103
  2.6160   2.6202   2.6263   2.6285   2.6308   2.6327   2.6372   2.6433
  2.6494   2.6501   2.6513   2.6555   2.6573   2.6643   2.6673   2.6687
  2.6724   2.6779   2.6791   2.6803   2.6823   2.6848   2.6874   2.6928
  2.6938   2.6958   2.6997   2.7001   2.7045   2.7061   2.7079   2.7099
  2.7131   2.7144   2.7195   2.7216   2.7271   2.7282   2.7356   2.7394
  2.7438   2.7448   2.7466   2.7474   2.7488   2.7520   2.7569   2.7638
  2.7670   2.7702   2.7762   2.7776   2.7844   2.7871   2.7898   2.7938
  2.7968   2.7988   2.8014   2.8069   2.8093   2.8126   2.8173   2.8223
  2.8245   2.8274   2.8344   2.8368   2.8380   2.8384   2.8428   2.8458
  2.8504   2.8553   2.8658   2.8678   2.8747   2.8779   2.8863   2.8868
  2.8909   2.8941   2.8995   2.9025   2.9053   2.9088   2.9124   2.9156
  2.9157   2.9180   2.9212   2.9239   2.9263   2.9310   2.9358   2.9387
  2.9442   2.9462   2.9517   2.9569   2.9626   2.9631   2.9685   2.9698
  2.9710   2.9746   2.9762   2.9773   2.9778   2.9815   2.9836   2.9839
  2.9889   2.9925   2.9998   3.0043   3.0076   3.0089   3.0183   3.0232
  3.0254   3.0320   3.0422   3.0469   3.0532   3.0598   3.0634   3.0640
  3.0735   3.0745   3.0794   3.0834   3.0859   3.0890   3.0908   3.0930
  3.0974   3.1076   3.1143   3.1179   3.1221   3.1255   3.1271   3.1330
  3.1418   3.1490   3.1560   3.1599   3.1623   3.1664   3.1753   3.1773
  3.1879   3.1941   3.1979   3.2026   3.2037   3.2105   3.2135   3.2146
  3.2186   3.2217   3.2228   3.2243   3.2253   3.2288   3.2309   3.2348
  3.2383   3.2405   3.2553   3.2566   3.2581   3.2638   3.2690   3.2734
  3.2851   3.2912   3.2928   3.2960   3.3020   3.3067   3.3098   3.3114
  3.3120   3.3180   3.3196   3.3210   3.3225   3.3255   3.3271   3.3314
  3.3382   3.3396   3.3438   3.3494   3.3516   3.3550   3.3600   3.3615
  3.3639   3.3676   3.3749   3.3818   3.3894   3.3942   3.3990   3.4195
  3.4217   3.4293   3.4320   3.4385   3.4447   3.4544   3.4655   3.4747
  3.4827   3.4847   3.4988   3.5636   3.6023   3.6661   3.6817   3.6929
  3.6942   3.7061   3.7067   3.7082   3.7128   3.7178   3.7246   3.7255
  3.7268   3.7351   3.7478   3.7544   3.7559   3.7600   3.7619   3.7641
  3.7681   3.7725   3.7739   3.7825   3.7849   3.7865   3.7941   3.7947
  3.7964   3.8074   3.8077   3.8173   3.8182   3.8195   3.8227   3.8248
  3.8253   3.8315   3.8321   3.8448   3.8461   3.8486   3.8534   3.8553
  3.8555   3.8558   3.8564   3.8578   3.8584   3.8592   3.8604   3.8611
  3.8696   3.8724   3.8900   3.8934   3.8968   3.8981   3.9201   3.9550
  3.9584   3.9600   3.9648   3.9704   3.9713   3.9821   3.9843   3.9931
  3.9943   4.0004   4.0039   4.0051   4.0140   4.0174   4.0237   4.0525
  4.0612   4.0718   4.0839   4.0866   4.0934   4.1039   4.1258   4.1304
  4.1371   4.1500   4.1528   4.1599   4.1665   4.2121   4.2157   4.2193
  4.2286   4.2399   4.2454   4.2477   4.2494   4.2514   4.2577   4.2589
  4.2732   4.3097   4.3165   4.3285   4.3459   4.3641   4.3790   4.3948
  4.3999   4.4063   4.4173   4.4342   4.4405   4.4429   4.4461   4.4547
  4.4643   4.4691   4.4861   4.4899   4.5029   4.5573   4.5613   4.5665
  4.5754   4.5789   4.5817   4.5838   4.5924   4.6012   4.6062   4.6144
  4.6252   4.6342   4.6375   4.6584   4.6732   4.6758   4.6960   4.7043
  4.7058   4.7127   4.7178   4.7205   4.7228   4.7324   4.7348   4.7444
  4.7505   4.7727   4.7764   4.7885   4.7942   4.8171   4.8258   4.8596
  4.8717   4.8829   4.8866   4.8942   4.9009   4.9034   4.9532   4.9887
  5.0009   5.1061   5.1180   5.1252   5.1351
 --------------------------------------------------------------
 
          Ground-State Mulliken Net Atomic Charges

     Atom                 Charge (a.u.)
  ----------------------------------------
      1 N                    -0.650502
      2 O                    -0.548538
      3 O                    -0.550285
      4 N                    -0.547024
      5 H                     0.256592
      6 N                    -0.518964
      7 O                    -0.544799
      8 N                    -0.550976
      9 H                     0.258893
     10 N                    -0.503630
     11 N                    -0.647019
     12 O                    -0.578687
     13 O                    -0.531470
     14 O                    -0.542902
     15 O                    -0.537054
     16 O                    -0.532887
     17 N                    -0.499950
     18 N                    -0.520490
     19 C                     0.449826
     20 C                     0.501868
     21 C                    -0.026062
     22 C                    -0.036564
     23 C                     0.454859
     24 C                     0.513472
     25 C                    -0.028334
     26 C                     0.027120
     27 C                    -0.041604
     28 C                     0.448320
     29 C                     0.511786
     30 C                     0.450183
     31 C                     0.320561
     32 C                     0.313101
     33 C                    -0.017028
     34 C                     0.310200
     35 C                     0.046725
     36 H                     0.117827
     37 H                     0.117989
     38 C                     0.322091
     39 C                     0.517248
     40 C                    -0.015493
     41 C                     0.025380
     42 C                     0.304592
     43 C                    -0.117265
     44 H                     0.087957
     45 C                    -0.127754
     46 H                     0.089086
     47 C                     0.251803
     48 C                    -0.121469
     49 H                     0.088311
     50 C                    -0.129386
     51 H                     0.088599
     52 C                     0.298192
     53 C                    -0.248322
     54 H                     0.149661
     55 H                     0.135224
     56 C                     0.255347
     57 C                     0.044285
     58 H                     0.115332
     59 H                     0.117602
     60 C                    -0.102028
     61 H                     0.094944
     62 C                     0.052515
     63 H                     0.114175
     64 H                     0.112959
     65 C                     0.063841
     66 H                     0.107721
     67 H                     0.113962
     68 C                    -0.128373
     69 H                     0.088679
     70 C                    -0.103554
     71 H                     0.097398
     72 C                    -0.128381
     73 H                     0.090087
     74 C                    -0.246097
     75 H                     0.139715
     76 H                     0.134182
     77 C                     0.073275
     78 H                     0.100526
     79 H                     0.112887
     80 C                    -0.240409
     81 H                     0.119895
     82 H                     0.135490
     83 C                    -0.259497
     84 H                     0.119576
     85 H                     0.118834
     86 C                    -0.245445
     87 H                     0.129992
     88 H                     0.134200
     89 C                    -0.249844
     90 H                     0.118668
     91 H                     0.119984
     92 C                     0.102129
     93 H                     0.088970
     94 H                     0.117704
     95 C                    -0.250278
     96 H                     0.138121
     97 H                     0.129468
     98 C                    -0.258105
     99 H                     0.121419
    100 H                     0.118907
    101 C                     0.066871
    102 H                     0.101579
    103 H                     0.103355
    104 C                    -0.251351
    105 H                     0.117223
    106 H                     0.117145
    107 C                    -0.244440
    108 H                     0.111167
    109 H                     0.111537
    110 C                    -0.229581
    111 H                     0.112887
    112 H                     0.112977
    113 C                    -0.363536
    114 H                     0.126442
    115 H                     0.130477
    116 H                     0.124103
    117 C                    -0.246119
    118 H                     0.117256
    119 H                     0.111695
    120 C                    -0.239585
    121 H                     0.135529
    122 H                     0.144105
    123 C                    -0.363020
    124 H                     0.130381
    125 H                     0.132500
    126 H                     0.126889
    127 C                     0.098556
    128 H                     0.098901
    129 H                     0.069595
    130 C                    -0.237786
    131 H                     0.104755
    132 H                     0.108553
    133 C                    -0.351475
    134 H                     0.125196
    135 H                     0.126017
    136 H                     0.118177
    137 C                    -0.362881
    138 H                     0.125320
    139 H                     0.133434
    140 H                     0.130039
    141 C                    -0.367131
    142 H                     0.124767
    143 H                     0.135294
    144 H                     0.130693
    145 C                    -0.247634
    146 H                     0.113442
    147 H                     0.116261
    148 C                    -0.363983
    149 H                     0.129967
    150 H                     0.132897
    151 H                     0.126758
    152 C                    -0.244909
    153 H                     0.111468
    154 H                     0.127788
    155 C                    -0.373666
    156 H                     0.126501
    157 H                     0.122167
    158 H                     0.126748
    159 C                    -0.346300
    160 H                     0.128115
    161 H                     0.118284
    162 H                     0.115800
  ----------------------------------------
  Sum of atomic charges =     0.000000

 -----------------------------------------------------------------
                    Cartesian Multipole Moments
 -----------------------------------------------------------------
    Charge (ESU x 10^10)
                 0.0000
    Dipole Moment (Debye)
         X      -0.1426      Y       0.7375      Z      -1.0562
       Tot       1.2960
    Quadrupole Moments (Debye-Ang)
        XX    -427.7570     XY     -27.6859     YY    -347.6777
        XZ      -1.5291     YZ     -41.8166     ZZ    -449.7227
    Octopole Moments (Debye-Ang^2)
       XXX    3024.1412    XXY   -9839.7911    XYY    -325.1155
       YYY  -25847.9275    XXZ   -7475.8887    XYZ    -349.4700
       YYZ   -8044.0481    XZZ     967.7270    YZZ  -11304.1957
       ZZZ  -22375.0806
    Hexadecapole Moments (Debye-Ang^3)
      XXXX  -45813.2049   XXXY   78147.7171   XXYY -240904.2117
      XYYY   29722.8903   YYYY ************   XXXZ   61033.9854
      XXYZ -169951.2513   XYYZ    2474.9005   YYYZ -507343.1355
      XXZZ -145617.8024   XYZZ   21929.9478   YYZZ -412914.1676
      XZZZ   59313.8122   YZZZ -539211.6136   ZZZZ -805176.4411
 -----------------------------------------------------------------
 Total job time:  8109.04s(wall), 61206.76s(cpu) 
 Sat Feb 15 12:58:43 2025

        *************************************************************
        *                                                           *
        *  Thank you very much for using Q-Chem.  Have a nice day.  *
        *                                                           *
        *************************************************************


Copy Fragment Subsystem from /scratch/sanghita/qchem162539/Frg2s1/
Copy MO Coefficient from /scratch/sanghita/qchem162539/Frg2s1/
Alpha electrons: 293
 Beta electrons: 293
Copy Set Amplitude from /scratch/sanghita/qchem162539/Frg2s1/

Total alpha electrons: 586
Total  beta electrons: 586

-----------------------------------------------------------------
 Done with SCF on isolated fragments
-----------------------------------------------------------------

-----------------------------------------------------------------
 Start with Direct Coulomb-Exchange Integration 
-----------------------------------------------------------------

 RPA/TDDFT Excited States --
 Donor    : State 1 to 6
 Acceptor : State 1 to 6
                                              Dipole-Dipole
              Coulomb (eV)    Exchange (eV)  Interaction (eV)
           ---------------  ---------------  ---------------
 ( 1, 1):    0.00221539907  -3.55188678E-06    0.00214366607
 ( 1, 2):     0.0103030256  -3.58312475E-06      0.010736221
 ( 1, 3):   0.000255134024  -2.32516085E-06    -0.0037660798
 ( 1, 4):   -0.00761018612   4.68775327E-06   -0.00613104383
 ( 1, 5):  -0.000416230334   7.53840083E-07    0.00140620747
 ( 1, 6):    -0.0039834417   2.67643762E-06   -0.00355567063
 ( 2, 1):     0.0103030259  -3.58312336E-06     0.0107362217
 ( 2, 2):    0.00122573098  -8.97356727E-07    0.00364564597
 ( 2, 3):    -0.0024010756   2.99260932E-07   -0.00184734166
 ( 2, 4):   0.000326090967   5.94471279E-07    -0.0019885061
 ( 2, 5):    0.00305766708  -7.50804611E-07    0.00219826934
 ( 2, 6):   -0.00364867081   1.44193106E-06   -0.00514931996
 ( 3, 1):    0.00025512371  -2.32515263E-06   -0.00376608572
 ( 3, 2):   -0.00240107176    2.9925875E-07   -0.00184734079
 ( 3, 3):   -0.00103425542   9.82539054E-07   0.000257044806
 ( 3, 4):    0.00233538183  -8.65071124E-07    0.00127422111
 ( 3, 5):   0.000803755128  -9.62043891E-07  -0.000537719374
 ( 3, 6):   0.000912294594   4.83543988E-07    0.00205819613
 ( 4, 1):   -0.00761018325   4.68774789E-06   -0.00613103754
 ( 4, 2):   0.000326096294    5.9446893E-07   -0.00198850064
 ( 4, 3):    0.00233538691  -8.65076065E-07     0.0012742203
 ( 4, 4):   -0.00145792175   7.96384916E-09   0.000974189522
 ( 4, 5):   -0.00267497818   1.27068247E-06   -0.00137024678
 ( 4, 6):    0.00215768615  -1.59355219E-06    0.00287043348
 ( 5, 1):   -0.00041623228   7.53843771E-07    0.00140621084
 ( 5, 2):    0.00305766684  -7.50803389E-07    0.00219826777
 ( 5, 3):   0.000803760921  -9.62050016E-07  -0.000537716992
 ( 5, 4):   -0.00267497894   1.27068279E-06   -0.00137024758
 ( 5, 5):  -0.000699851338   6.84422226E-07   0.000311856248
 ( 5, 6):  -0.000932193819   1.59748134E-07   -0.00116250639
 ( 6, 1):   -0.00398344365   2.67643239E-06   -0.00355567321
 ( 6, 2):   -0.00364867159   1.44193243E-06   -0.00514932074
 ( 6, 3):   0.000912292808   4.83545076E-07    0.00205819466
 ( 6, 4):    0.00215768972   -1.5935545E-06      0.002870438
 ( 6, 5):  -0.000932194565   1.59749099E-07   -0.00116250584
 ( 6, 6):     0.0024348605  -1.41479797E-06    0.00268078717
--------------------------------------------------------------
 DC time:  CPU 14597.26 s  wall 1890.51 s


 CIS/TDDFT memory preview:
 --------------------------
	NOV = NOa*NVa + NOb*NVb = 3087048
	NRoots = 12, max iter = 30, max vectors = 360
	Size of each subspace vector: 23.55 Mb
	Davidson algorithm may add up to 2 x NOV x NRoots (= 565.3 Mb) per iteration
	Max memory = 16957.7 Mb (worst case scenario)
	Currently available memory = 2000.0 Mb

	In case of problems:
	(a) increase memory (MEM_TOTAL = 16958 can hold 360 subspace vectors), or
	(b) request fewer states (CIS_N_ROOTS = 1 will fit in current MEM_TOTAL), or
	(c) reduce MAX_CIS_SUBSPACE (= 42 will fit in current MEM_TOTAL).
	Reducing MAX_CIS_SUBSPACE may hamper convergence.

 CIS energy converged when residual is below 10e- 6
  Skipping CIS/RPA calculation, including relax
  Going directly to Wavefunction Analysis
 No wavefunction analysis requested
 Total job time:  18136.57s(wall), 14639.40s(cpu) 
 Sat Feb 15 13:30:21 2025

        *************************************************************
        *                                                           *
        *  Thank you very much for using Q-Chem.  Have a nice day.  *
        *                                                           *
        *************************************************************


